Program Version,EnergyPlus, Version 23.2.0-7636e6b3e9, YMD=2025.12.16 19:29
1,5,Environment Title[],Latitude[deg],Longitude[deg],Time Zone[],Elevation[m]
2,8,Day of Simulation[],Month[],Day of Month[],DST Indicator[1=yes 0=no],Hour[],StartMinute[],EndMinute[],DayType
3,5,Cumulative Day of Simulation[],Month[],Day of Month[],DST Indicator[1=yes 0=no],DayType  ! When Daily Meters Requested
4,2,Cumulative Days of Simulation[],Month[]  ! When Monthly Meters Requested
5,1,Cumulative Days of Simulation[] ! When Run Period Meters Requested
6,1,Calendar Year of Simulation[] ! When Annual Meters Requested
35,1,Electricity:Facility [J] !TimeStep
47,1,Electricity:Building [J] !TimeStep
83,1,InteriorLights:Electricity [J] !TimeStep
4101,1,Electricity:HVAC [J] !TimeStep
4164,1,Electricity:Plant [J] !TimeStep
40,11,Electricity:Facility [J] !RunPeriod [Value,Min,Month,Day,Hour,Minute,Max,Month,Day,Hour,Minute]
52,11,Electricity:Building [J] !RunPeriod [Value,Min,Month,Day,Hour,Minute,Max,Month,Day,Hour,Minute]
88,11,InteriorLights:Electricity [J] !RunPeriod [Value,Min,Month,Day,Hour,Minute,Max,Month,Day,Hour,Minute]
4106,11,Electricity:HVAC [J] !RunPeriod [Value,Min,Month,Day,Hour,Minute,Max,Month,Day,Hour,Minute]
4169,11,Electricity:Plant [J] !RunPeriod [Value,Min,Month,Day,Hour,Minute,Max,Month,Day,Hour,Minute]
End of Data Dictionary
1,RUN PERIOD 1,  36.60, 117.05,   8.00, 170.30
2,1, 6, 1, 0, 1, 0.00,15.00,Monday
35,18934422.31802851
47,1360800.0
83,972000.0
4101,2619530.621814628
4164,14954091.696213879
2,1, 6, 1, 0, 1,15.00,30.00,Monday
35,18911061.299946047
47,1360800.0
83,972000.0
4101,2619530.621814628
4164,14930730.678131416
2,1, 6, 1, 0, 1,30.00,45.00,Monday
35,18889721.435156632
47,1360800.0
83,972000.0
4101,2619530.621814628
4164,14909390.813342001
2,1, 6, 1, 0, 1,45.00,60.00,Monday
35,18870157.602370728
47,1360800.0
83,972000.0
4101,2619530.621814628
4164,14889826.980556097
2,1, 6, 1, 0, 2, 0.00,15.00,Monday
35,18872358.968485676
47,1360800.0
83,972000.0
4101,2619530.621814628
4164,14892028.346671047
2,1, 6, 1, 0, 2,15.00,30.00,Monday
35,18874495.838862024
47,1360800.0
83,972000.0
4101,2619530.621814628
4164,14894165.217047393
2,1, 6, 1, 0, 2,30.00,45.00,Monday
35,18876563.792664755
47,1360800.0
83,972000.0
4101,2619530.621814628
4164,14896233.170850126
2,1, 6, 1, 0, 2,45.00,60.00,Monday
35,18878558.64426064
47,1360800.0
83,972000.0
4101,2619530.621814628
4164,14898228.02244601
2,1, 6, 1, 0, 3, 0.00,15.00,Monday
35,18879634.199978467
47,1360800.0
83,972000.0
4101,2619530.621814628
4164,14899303.578163836
2,1, 6, 1, 0, 3,15.00,30.00,Monday
35,18880624.41241409
47,1360800.0
83,972000.0
4101,2619530.621814628
4164,14900293.79059946
2,1, 6, 1, 0, 3,30.00,45.00,Monday
35,18881525.87619981
47,1360800.0
83,972000.0
4101,2619530.621814628
4164,14901195.25438518
2,1, 6, 1, 0, 3,45.00,60.00,Monday
35,18882336.210447043
47,1360800.0
83,972000.0
4101,2619530.621814628
4164,14902005.588632414
2,1, 6, 1, 0, 4, 0.00,15.00,Monday
35,18880379.08401659
47,1360800.0
83,972000.0
4101,2619530.621814628
4164,14900048.46220196
2,1, 6, 1, 0, 4,15.00,30.00,Monday
35,18878405.503918372
47,1360800.0
83,972000.0
4101,2619530.621814628
4164,14898074.882103741
2,1, 6, 1, 0, 4,30.00,45.00,Monday
35,18876415.549716555
47,1360800.0
83,972000.0
4101,2619530.621814628
4164,14896084.927901924
2,1, 6, 1, 0, 4,45.00,60.00,Monday
35,18874409.507493317
47,1360800.0
83,972000.0
4101,2619530.621814628
4164,14894078.885678688
2,1, 6, 1, 0, 5, 0.00,15.00,Monday
35,18871495.216872804
47,1360800.0
83,972000.0
4101,2619530.621814628
4164,14891164.595058173
2,1, 6, 1, 0, 5,15.00,30.00,Monday
35,18868616.983272392
47,1360800.0
83,972000.0
4101,2619530.621814628
4164,14888286.361457761
2,1, 6, 1, 0, 5,30.00,45.00,Monday
35,18865774.050558046
47,1360800.0
83,972000.0
4101,2619530.621814628
4164,14885443.428743415
2,1, 6, 1, 0, 5,45.00,60.00,Monday
35,18862965.76156907
47,1360800.0
83,972000.0
4101,2619530.621814628
4164,14882635.13975444
2,1, 6, 1, 0, 6, 0.00,15.00,Monday
35,18859465.357405316
47,1360800.0
83,972000.0
4101,2619530.621814628
4164,14879134.735590687
2,1, 6, 1, 0, 6,15.00,30.00,Monday
35,18856009.947379235
47,1360800.0
83,972000.0
4101,2619530.621814628
4164,14875679.325564604
2,1, 6, 1, 0, 6,30.00,45.00,Monday
35,18852630.97826393
47,1360800.0
83,972000.0
4101,2619530.621814628
4164,14872300.3564493
2,1, 6, 1, 0, 6,45.00,60.00,Monday
35,18849310.19526151
47,1360800.0
83,972000.0
4101,2619530.621814628
4164,14868979.57344688
2,1, 6, 1, 0, 7, 0.00,15.00,Monday
35,18849991.211820994
47,1360800.0
83,972000.0
4101,2619530.621814628
4164,14869660.590006363
2,1, 6, 1, 0, 7,15.00,30.00,Monday
35,18850674.84246121
47,1360800.0
83,972000.0
4101,2619530.621814628
4164,14870344.220646579
2,1, 6, 1, 0, 7,30.00,45.00,Monday
35,18851361.05756116
47,1360800.0
83,972000.0
4101,2619530.621814628
4164,14871030.435746528
2,1, 6, 1, 0, 7,45.00,60.00,Monday
35,18852049.967650183
47,1360800.0
83,972000.0
4101,2619530.621814628
4164,14871719.345835552
2,1, 6, 1, 0, 8, 0.00,15.00,Monday
35,18855484.9925456
47,1360800.0
83,972000.0
4101,2619530.621814628
4164,14875154.370730972
2,1, 6, 1, 0, 8,15.00,30.00,Monday
35,18859006.554259412
47,1360800.0
83,972000.0
4101,2619530.621814628
4164,14878675.932444781
2,1, 6, 1, 0, 8,30.00,45.00,Monday
35,18862583.51824174
47,1360800.0
83,972000.0
4101,2619530.621814628
4164,14882252.89642711
2,1, 6, 1, 0, 8,45.00,60.00,Monday
35,18866235.08492345
47,1360800.0
83,972000.0
4101,2619530.621814628
4164,14885904.46310882
2,1, 6, 1, 0, 9, 0.00,15.00,Monday
35,59308298.22819102
47,25272000.0
83,17496000.0
4101,5848281.868327631
4164,28188016.359863393
2,1, 6, 1, 0, 9,15.00,30.00,Monday
35,61435483.74449787
47,25272000.0
83,17496000.0
4101,6248167.928288335
4164,29915315.816209543
2,1, 6, 1, 0, 9,30.00,45.00,Monday
35,62252897.42552623
47,25272000.0
83,17496000.0
4101,6372811.226011912
4164,30608086.199514326
2,1, 6, 1, 0, 9,45.00,60.00,Monday
35,62503773.98573646
47,25272000.0
83,17496000.0
4101,6234547.698073276
4164,30997226.28766319
2,1, 6, 1, 0,10, 0.00,15.00,Monday
35,74564279.15766749
47,35964000.0
83,18468000.0
4101,6505131.917828789
4164,32095147.23983871
2,1, 6, 1, 0,10,15.00,30.00,Monday
35,75476814.0317785
47,35964000.0
83,18468000.0
4101,6505131.917828789
4164,33007682.113949727
2,1, 6, 1, 0,10,30.00,45.00,Monday
35,76424495.39629485
47,35964000.0
83,18468000.0
4101,6505131.917828789
4164,33955363.47846607
2,1, 6, 1, 0,10,45.00,60.00,Monday
35,77129564.92716381
47,35964000.0
83,18468000.0
4101,6505131.917828789
4164,34660433.00933504
2,1, 6, 1, 0,11, 0.00,15.00,Monday
35,78928562.2691993
47,36936000.0
83,19440000.0
4101,6505131.917828789
4164,35487430.35137053
2,1, 6, 1, 0,11,15.00,30.00,Monday
35,79728995.04284412
47,36936000.0
83,19440000.0
4101,6505131.917828789
4164,36287863.12501533
2,1, 6, 1, 0,11,30.00,45.00,Monday
35,80216410.91200602
47,36936000.0
83,19440000.0
4101,6505131.917828789
4164,36775278.994177245
2,1, 6, 1, 0,11,45.00,60.00,Monday
35,80266686.40689263
47,36936000.0
83,19440000.0
4101,6505131.917828789
4164,36825554.489063844
2,1, 6, 1, 0,12, 0.00,15.00,Monday
35,79162374.17921005
47,35964000.0
83,18468000.0
4101,6505131.917828789
4164,36693242.26138125
2,1, 6, 1, 0,12,15.00,30.00,Monday
35,79023610.61093424
47,35964000.0
83,18468000.0
4101,6505131.917828789
4164,36554478.69310546
2,1, 6, 1, 0,12,30.00,45.00,Monday
35,78900051.72222833
47,35964000.0
83,18468000.0
4101,6505131.917828789
4164,36430919.80439955
2,1, 6, 1, 0,12,45.00,60.00,Monday
35,78793567.08937904
47,35964000.0
83,18468000.0
4101,6505131.917828789
4164,36324435.17155027
2,1, 6, 1, 0,13, 0.00,15.00,Monday
35,75812060.89133643
47,33048000.0
83,15552000.0
4101,6505131.917828789
4164,36258928.973507635
2,1, 6, 1, 0,13,15.00,30.00,Monday
35,75772879.18675081
47,33048000.0
83,15552000.0
4101,6505131.917828789
4164,36219747.26892202
2,1, 6, 1, 0,13,30.00,45.00,Monday
35,75766733.64777736
47,33048000.0
83,15552000.0
4101,6505131.917828789
4164,36213601.729948565
2,1, 6, 1, 0,13,45.00,60.00,Monday
35,75787574.39067401
47,33048000.0
83,15552000.0
4101,6505131.917828789
4164,36234442.47284522
2,1, 6, 1, 0,14, 0.00,15.00,Monday
35,77796396.24894693
47,34992000.0
83,17496000.0
4101,6505131.917828789
4164,36299264.33111815
2,1, 6, 1, 0,14,15.00,30.00,Monday
35,77896024.09994355
47,34992000.0
83,17496000.0
4101,6505131.917828789
4164,36398892.18211477
2,1, 6, 1, 0,14,30.00,45.00,Monday
35,78003793.96543634
47,34992000.0
83,17496000.0
4101,6505131.917828789
4164,36506662.047607556
2,1, 6, 1, 0,14,45.00,60.00,Monday
35,78133451.87153114
47,34992000.0
83,17496000.0
4101,6505131.917828789
4164,36636319.95370236
2,1, 6, 1, 0,15, 0.00,15.00,Monday
35,78326167.21869215
47,34992000.0
83,19440000.0
4101,6505131.917828789
4164,36829035.30086337
2,1, 6, 1, 0,15,15.00,30.00,Monday
35,77695770.93149711
47,34992000.0
83,19440000.0
4101,6505131.917828789
4164,36198639.01366832
2,1, 6, 1, 0,15,30.00,45.00,Monday
35,76965057.1433334
47,34992000.0
83,19440000.0
4101,6505131.917828789
4164,35467925.22550463
2,1, 6, 1, 0,15,45.00,60.00,Monday
35,76161639.64963835
47,34992000.0
83,19440000.0
4101,6505131.917828789
4164,34664507.73180957
2,1, 6, 1, 0,16, 0.00,15.00,Monday
35,73650293.75945884
47,33048000.0
83,19440000.0
4101,6505131.917828789
4164,34097161.84163005
2,1, 6, 1, 0,16,15.00,30.00,Monday
35,73173204.07488269
47,33048000.0
83,19440000.0
4101,6505131.917828789
4164,33620072.1570539
2,1, 6, 1, 0,16,30.00,45.00,Monday
35,72703099.10706632
47,33048000.0
83,19440000.0
4101,6505131.917828789
4164,33149967.189237542
2,1, 6, 1, 0,16,45.00,60.00,Monday
35,72259107.2689152
47,33048000.0
83,19440000.0
4101,6505131.917828789
4164,32705975.351086427
2,1, 6, 1, 0,17, 0.00,15.00,Monday
35,68189903.65448749
47,29160000.0
83,19440000.0
4101,6505131.917828789
4164,32524771.73665871
2,1, 6, 1, 0,17,15.00,30.00,Monday
35,68014563.310884
47,29160000.0
83,19440000.0
4101,6505131.917828789
4164,32349431.39305522
2,1, 6, 1, 0,17,30.00,45.00,Monday
35,67734364.45465748
47,29160000.0
83,19440000.0
4101,6505131.917828789
4164,32069232.536828704
2,1, 6, 1, 0,17,45.00,60.00,Monday
35,67463595.65190883
47,29160000.0
83,19440000.0
4101,6505131.917828789
4164,31798463.73408005
2,1, 6, 1, 0,18, 0.00,15.00,Monday
35,67427646.77551374
47,29160000.0
83,19440000.0
4101,6505131.917828789
4164,31762514.85768495
2,1, 6, 1, 0,18,15.00,30.00,Monday
35,67426506.19976404
47,29160000.0
83,19440000.0
4101,6505131.917828789
4164,31761374.281935267
2,1, 6, 1, 0,18,30.00,45.00,Monday
35,67424925.04262137
47,29160000.0
83,19440000.0
4101,6505131.917828789
4164,31759793.124792587
2,1, 6, 1, 0,18,45.00,60.00,Monday
35,67423571.47885507
47,29160000.0
83,19440000.0
4101,6505131.917828789
4164,31758439.561026298
2,1, 6, 1, 0,19, 0.00,15.00,Monday
35,55566361.47553028
47,17496000.0
83,11664000.0
4101,6405093.134237188
4164,31665268.341293104
2,1, 6, 1, 0,19,15.00,30.00,Monday
35,55175154.621662356
47,17496000.0
83,11664000.0
4101,6367961.208109559
4164,31311193.413552806
2,1, 6, 1, 0,19,30.00,45.00,Monday
35,54719838.73782352
47,17496000.0
83,11664000.0
4101,6309900.13836653
4164,30913938.599457
2,1, 6, 1, 0,19,45.00,60.00,Monday
35,54614778.81544443
47,17496000.0
83,11664000.0
4101,6253089.9790466875
4164,30865688.836397745
2,1, 6, 1, 0,20, 0.00,15.00,Monday
35,49999270.81952917
47,13608000.0
83,7776000.0
4101,5869851.150544848
4164,30521419.668984327
2,1, 6, 1, 0,20,15.00,30.00,Monday
35,49461594.31283382
47,13608000.0
83,7776000.0
4101,5622447.926170468
4164,30231146.386663355
2,1, 6, 1, 0,20,30.00,45.00,Monday
35,49038898.03761122
47,13608000.0
83,7776000.0
4101,5413892.665010896
4164,30017005.372600324
2,1, 6, 1, 0,20,45.00,60.00,Monday
35,48753047.03907392
47,13608000.0
83,7776000.0
4101,5250259.845648851
4164,29894787.193425067
2,1, 6, 1, 0,21, 0.00,15.00,Monday
35,48445366.69590721
47,13608000.0
83,7776000.0
4101,5058400.270887831
4164,29778966.425019383
2,1, 6, 1, 0,21,15.00,30.00,Monday
35,48253525.81322675
47,13608000.0
83,7776000.0
4101,4906046.423692321
4164,29739479.389534432
2,1, 6, 1, 0,21,30.00,45.00,Monday
35,48131212.61055654
47,13608000.0
83,7776000.0
4101,4776173.489570529
4164,29747039.12098601
2,1, 6, 1, 0,21,45.00,60.00,Monday
35,48049355.02274113
47,13608000.0
83,7776000.0
4101,4661521.302816734
4164,29779833.7199244
2,1, 6, 1, 0,22, 0.00,15.00,Monday
35,19941903.0588854
47,1360800.0
83,972000.0
4101,2619530.621814628
4164,15961572.437070774
2,1, 6, 1, 0,22,15.00,30.00,Monday
35,18951745.207009234
47,1360800.0
83,972000.0
4101,2619530.621814628
4164,14971414.585194604
2,1, 6, 1, 0,22,30.00,45.00,Monday
35,18955472.477085635
47,1360800.0
83,972000.0
4101,2619530.621814628
4164,14975141.855271006
2,1, 6, 1, 0,22,45.00,60.00,Monday
35,18959250.45177504
47,1360800.0
83,972000.0
4101,2619530.621814628
4164,14978919.82996041
2,1, 6, 1, 0,23, 0.00,15.00,Monday
35,18960470.644542404
47,1360800.0
83,972000.0
4101,2619530.621814628
4164,14980140.022727774
2,1, 6, 1, 0,23,15.00,30.00,Monday
35,18961677.444617834
47,1360800.0
83,972000.0
4101,2619530.621814628
4164,14981346.822803205
2,1, 6, 1, 0,23,30.00,45.00,Monday
35,18962849.802255563
47,1360800.0
83,972000.0
4101,2619530.621814628
4164,14982519.180440933
2,1, 6, 1, 0,23,45.00,60.00,Monday
35,18964035.589324024
47,1360800.0
83,972000.0
4101,2619530.621814628
4164,14983704.967509393
2,1, 6, 1, 0,24, 0.00,15.00,Monday
35,18963120.763392698
47,1360800.0
83,972000.0
4101,2619530.621814628
4164,14982790.141578067
2,1, 6, 1, 0,24,15.00,30.00,Monday
35,18962177.173653368
47,1360800.0
83,972000.0
4101,2619530.621814628
4164,14981846.551838737
2,1, 6, 1, 0,24,30.00,45.00,Monday
35,18961162.581106577
47,1360800.0
83,972000.0
4101,2619530.621814628
4164,14980831.959291948
2,1, 6, 1, 0,24,45.00,60.00,Monday
35,18960098.251366798
47,1360800.0
83,972000.0
4101,2619530.621814628
4164,14979767.629552167
2,2, 6, 2, 0, 1, 0.00,15.00,Tuesday
35,18954696.141334984
47,1360800.0
83,972000.0
4101,2619530.621814628
4164,14974365.519520355
2,2, 6, 2, 0, 1,15.00,30.00,Tuesday
35,18949378.5775471
47,1360800.0
83,972000.0
4101,2619530.621814628
4164,14969047.95573247
2,2, 6, 2, 0, 1,30.00,45.00,Tuesday
35,18944144.51488228
47,1360800.0
83,972000.0
4101,2619530.621814628
4164,14963813.89306765
2,2, 6, 2, 0, 1,45.00,60.00,Tuesday
35,18938992.583150562
47,1360800.0
83,972000.0
4101,2619530.621814628
4164,14958661.961335933
2,2, 6, 2, 0, 2, 0.00,15.00,Tuesday
35,18931471.404609308
47,1360800.0
83,972000.0
4101,2619530.621814628
4164,14951140.782794677
2,2, 6, 2, 0, 2,15.00,30.00,Tuesday
35,18924155.852317825
47,1360800.0
83,972000.0
4101,2619530.621814628
4164,14943825.230503196
2,2, 6, 2, 0, 2,30.00,45.00,Tuesday
35,18917038.602698885
47,1360800.0
83,972000.0
4101,2619530.621814628
4164,14936707.980884254
2,2, 6, 2, 0, 2,45.00,60.00,Tuesday
35,18910112.984977502
47,1360800.0
83,972000.0
4101,2619530.621814628
4164,14929782.363162873
2,2, 6, 2, 0, 3, 0.00,15.00,Tuesday
35,18901314.641957037
47,1360800.0
83,972000.0
4101,2619530.621814628
4164,14920984.020142408
2,2, 6, 2, 0, 3,15.00,30.00,Tuesday
35,18892836.45559464
47,1360800.0
83,972000.0
4101,2619530.621814628
4164,14912505.833780011
2,2, 6, 2, 0, 3,30.00,45.00,Tuesday
35,18884661.86702003
47,1360800.0
83,972000.0
4101,2619530.621814628
4164,14904331.2452054
2,2, 6, 2, 0, 3,45.00,60.00,Tuesday
35,18876775.808977306
47,1360800.0
83,972000.0
4101,2619530.621814628
4164,14896445.187162675
2,2, 6, 2, 0, 4, 0.00,15.00,Tuesday
35,18867226.60878821
47,1360800.0
83,972000.0
4101,2619530.621814628
4164,14886895.986973582
2,2, 6, 2, 0, 4,15.00,30.00,Tuesday
35,18858123.151489623
47,1360800.0
83,972000.0
4101,2619530.621814628
4164,14877792.529674992
2,2, 6, 2, 0, 4,30.00,45.00,Tuesday
35,18849418.393672425
47,1360800.0
83,972000.0
4101,2619530.621814628
4164,14869087.771857798
2,2, 6, 2, 0, 4,45.00,60.00,Tuesday
35,18841118.030591812
47,1360800.0
83,972000.0
4101,2619530.621814628
4164,14860787.408777183
2,2, 6, 2, 0, 5, 0.00,15.00,Tuesday
35,18833768.98653885
47,1360800.0
83,972000.0
4101,2619530.621814628
4164,14853438.36472422
2,2, 6, 2, 0, 5,15.00,30.00,Tuesday
35,18826725.075345818
47,1360800.0
83,972000.0
4101,2619530.621814628
4164,14846394.453531189
2,2, 6, 2, 0, 5,30.00,45.00,Tuesday
35,18819968.396663077
47,1360800.0
83,972000.0
4101,2619530.621814628
4164,14839637.774848448
2,2, 6, 2, 0, 5,45.00,60.00,Tuesday
35,18813481.99779707
47,1360800.0
83,972000.0
4101,2619530.621814628
4164,14833151.37598244
2,2, 6, 2, 0, 6, 0.00,15.00,Tuesday
35,18810959.671420626
47,1360800.0
83,972000.0
4101,2619530.621814628
4164,14830629.049605995
2,2, 6, 2, 0, 6,15.00,30.00,Tuesday
35,18808477.207298875
47,1360800.0
83,972000.0
4101,2619530.621814628
4164,14828146.585484244
2,2, 6, 2, 0, 6,30.00,45.00,Tuesday
35,18806033.61305855
47,1360800.0
83,972000.0
4101,2619530.621814628
4164,14825702.991243917
2,2, 6, 2, 0, 6,45.00,60.00,Tuesday
35,18803628.245830055
47,1360800.0
83,972000.0
4101,2619530.621814628
4164,14823297.624015426
2,2, 6, 2, 0, 7, 0.00,15.00,Tuesday
35,18805244.20874092
47,1360800.0
83,972000.0
4101,2619530.621814628
4164,14824913.586926289
2,2, 6, 2, 0, 7,15.00,30.00,Tuesday
35,18806864.57640956
47,1360800.0
83,972000.0
4101,2619530.621814628
4164,14826533.954594929
2,2, 6, 2, 0, 7,30.00,45.00,Tuesday
35,18808489.498598468
47,1360800.0
83,972000.0
4101,2619530.621814628
4164,14828158.876783837
2,2, 6, 2, 0, 7,45.00,60.00,Tuesday
35,18810118.763560712
47,1360800.0
83,972000.0
4101,2619530.621814628
4164,14829788.141746081
2,2, 6, 2, 0, 8, 0.00,15.00,Tuesday
35,18816821.400760196
47,1360800.0
83,972000.0
4101,2619530.621814628
4164,14836490.778945565
2,2, 6, 2, 0, 8,15.00,30.00,Tuesday
35,18823784.603402928
47,1360800.0
83,972000.0
4101,2619530.621814628
4164,14843453.981588298
2,2, 6, 2, 0, 8,30.00,45.00,Tuesday
35,18831022.91980767
47,1360800.0
83,972000.0
4101,2619530.621814628
4164,14850692.29799304
2,2, 6, 2, 0, 8,45.00,60.00,Tuesday
35,18838551.74707951
47,1360800.0
83,972000.0
4101,2619530.621814628
4164,14858221.12526488
2,2, 6, 2, 0, 9, 0.00,15.00,Tuesday
35,56874035.65711899
47,25272000.0
83,17496000.0
4101,5542922.092587246
4164,26059113.564531755
2,2, 6, 2, 0, 9,15.00,30.00,Tuesday
35,58788420.2181847
47,25272000.0
83,17496000.0
4101,5821851.951259887
4164,27694568.266924817
2,2, 6, 2, 0, 9,30.00,45.00,Tuesday
35,59493462.97551095
47,25272000.0
83,17496000.0
4101,5927256.275807211
4164,28294206.69970374
2,2, 6, 2, 0, 9,45.00,60.00,Tuesday
35,60060781.78834618
47,25272000.0
83,17496000.0
4101,5872420.498769669
4164,28916361.28957651
2,2, 6, 2, 0,10, 0.00,15.00,Tuesday
35,72558137.77008745
47,35964000.0
83,18468000.0
4101,6439927.636832675
4164,30154210.133254785
2,2, 6, 2, 0,10,15.00,30.00,Tuesday
35,73131529.6690821
47,35964000.0
83,18468000.0
4101,6461834.649966098
4164,30705695.019116
2,2, 6, 2, 0,10,30.00,45.00,Tuesday
35,73587760.22851183
47,35964000.0
83,18468000.0
4101,6480867.116133476
4164,31142893.112378363
2,2, 6, 2, 0,10,45.00,60.00,Tuesday
35,73944133.33790484
47,35964000.0
83,18468000.0
4101,6496122.450473537
4164,31484010.8874313
2,2, 6, 2, 0,11, 0.00,15.00,Tuesday
35,75146162.32183991
47,36936000.0
83,19440000.0
4101,6505131.917828789
4164,31705030.404011145
2,2, 6, 2, 0,11,15.00,30.00,Tuesday
35,75352731.6001928
47,36936000.0
83,19440000.0
4101,6505131.917828789
4164,31911599.682364028
2,2, 6, 2, 0,11,30.00,45.00,Tuesday
35,75519486.45347315
47,36936000.0
83,19440000.0
4101,6505131.917828789
4164,32078354.53564437
2,2, 6, 2, 0,11,45.00,60.00,Tuesday
35,75668153.99289836
47,36936000.0
83,19440000.0
4101,6505131.917828789
4164,32227022.075069588
2,2, 6, 2, 0,12, 0.00,15.00,Tuesday
35,74794746.43343312
47,35964000.0
83,18468000.0
4101,6505131.917828789
4164,32325614.515604325
2,2, 6, 2, 0,12,15.00,30.00,Tuesday
35,74854305.84615827
47,35964000.0
83,18468000.0
4101,6505131.917828789
4164,32385173.928329475
2,2, 6, 2, 0,12,30.00,45.00,Tuesday
35,74801966.93073712
47,35964000.0
83,18468000.0
4101,6505131.917828789
4164,32332835.01290834
2,2, 6, 2, 0,12,45.00,60.00,Tuesday
35,74747605.56032075
47,35964000.0
83,18468000.0
4101,6505131.917828789
4164,32278473.642491974
2,2, 6, 2, 0,13, 0.00,15.00,Tuesday
35,71737893.9468645
47,33048000.0
83,15552000.0
4101,6470326.159095708
4164,32219567.787768796
2,2, 6, 2, 0,13,15.00,30.00,Tuesday
35,71626699.38107125
47,33048000.0
83,15552000.0
4101,6452554.317462187
4164,32126145.063609075
2,2, 6, 2, 0,13,30.00,45.00,Tuesday
35,71414307.69973563
47,33048000.0
83,15552000.0
4101,6473839.620549452
4164,31892468.07918618
2,2, 6, 2, 0,13,45.00,60.00,Tuesday
35,71191662.99314858
47,33048000.0
83,15552000.0
4101,6486227.282133559
4164,31657435.71101503
2,2, 6, 2, 0,14, 0.00,15.00,Tuesday
35,73140155.34756517
47,34992000.0
83,17496000.0
4101,6505131.917828789
4164,31643023.429736402
2,2, 6, 2, 0,14,15.00,30.00,Tuesday
35,73243179.97811912
47,34992000.0
83,17496000.0
4101,6505131.917828789
4164,31746048.06029034
2,2, 6, 2, 0,14,30.00,45.00,Tuesday
35,73569150.9981943
47,34992000.0
83,17496000.0
4101,6505131.917828789
4164,32072019.080365524
2,2, 6, 2, 0,14,45.00,60.00,Tuesday
35,73890464.05383614
47,34992000.0
83,17496000.0
4101,6505131.917828789
4164,32393332.136007357
2,2, 6, 2, 0,15, 0.00,15.00,Tuesday
35,74309670.98621505
47,34992000.0
83,19440000.0
4101,6505131.917828789
4164,32812539.068386275
2,2, 6, 2, 0,15,15.00,30.00,Tuesday
35,74717105.29923998
47,34992000.0
83,19440000.0
4101,6505131.917828789
4164,33219973.381411206
2,2, 6, 2, 0,15,30.00,45.00,Tuesday
35,75145888.1609488
47,34992000.0
83,19440000.0
4101,6505131.917828789
4164,33648756.24312002
2,2, 6, 2, 0,15,45.00,60.00,Tuesday
35,75572552.29615228
47,34992000.0
83,19440000.0
4101,6505131.917828789
4164,34075420.37832349
2,2, 6, 2, 0,16, 0.00,15.00,Tuesday
35,73967185.09381552
47,33048000.0
83,19440000.0
4101,6505131.917828789
4164,34414053.175986744
2,2, 6, 2, 0,16,15.00,30.00,Tuesday
35,74253983.83184187
47,33048000.0
83,19440000.0
4101,6505131.917828789
4164,34700851.91401308
2,2, 6, 2, 0,16,30.00,45.00,Tuesday
35,74471837.4493194
47,33048000.0
83,19440000.0
4101,6505131.917828789
4164,34918705.53149063
2,2, 6, 2, 0,16,45.00,60.00,Tuesday
35,74682956.87320682
47,33048000.0
83,19440000.0
4101,6505131.917828789
4164,35129824.95537803
2,2, 6, 2, 0,17, 0.00,15.00,Tuesday
35,70662756.95798618
47,29160000.0
83,19440000.0
4101,6505131.917828789
4164,34997625.040157385
2,2, 6, 2, 0,17,15.00,30.00,Tuesday
35,70518817.0761845
47,29160000.0
83,19440000.0
4101,6505131.917828789
4164,34853685.15835571
2,2, 6, 2, 0,17,30.00,45.00,Tuesday
35,70288711.11877559
47,29160000.0
83,19440000.0
4101,6505131.917828789
4164,34623579.200946815
2,2, 6, 2, 0,17,45.00,60.00,Tuesday
35,70072268.63455512
47,29160000.0
83,19440000.0
4101,6505131.917828789
4164,34407136.71672633
2,2, 6, 2, 0,18, 0.00,15.00,Tuesday
35,69920857.83653554
47,29160000.0
83,19440000.0
4101,6505131.917828789
4164,34255725.91870677
2,2, 6, 2, 0,18,15.00,30.00,Tuesday
35,69798978.64266963
47,29160000.0
83,19440000.0
4101,6505131.917828789
4164,34133846.72484085
2,2, 6, 2, 0,18,30.00,45.00,Tuesday
35,69680126.67380816
47,29160000.0
83,19440000.0
4101,6505131.917828789
4164,34014994.75597938
2,2, 6, 2, 0,18,45.00,60.00,Tuesday
35,69559315.27918972
47,29160000.0
83,19440000.0
4101,6505131.917828789
4164,33894183.36136094
2,2, 6, 2, 0,19, 0.00,15.00,Tuesday
35,57525515.85595495
47,17496000.0
83,11664000.0
4101,6470080.086114466
4164,33559435.76984049
2,2, 6, 2, 0,19,15.00,30.00,Tuesday
35,56789261.071738616
47,17496000.0
83,11664000.0
4101,6437053.83562346
4164,32856207.23611516
2,2, 6, 2, 0,19,30.00,45.00,Tuesday
35,55973704.14031695
47,17496000.0
83,11664000.0
4101,6401175.290739967
4164,32076528.849576987
2,2, 6, 2, 0,19,45.00,60.00,Tuesday
35,55498331.424457364
47,17496000.0
83,11664000.0
4101,6353481.078329563
4164,31648850.346127804
2,2, 6, 2, 0,20, 0.00,15.00,Tuesday
35,50772832.13101718
47,13608000.0
83,7776000.0
4101,6156532.022479116
4164,31008300.10853807
2,2, 6, 2, 0,20,15.00,30.00,Tuesday
35,49822962.74715948
47,13608000.0
83,7776000.0
4101,5985222.603505756
4164,30229740.14365373
2,2, 6, 2, 0,20,30.00,45.00,Tuesday
35,48903706.642123975
47,13608000.0
83,7776000.0
4101,5797068.896709386
4164,29498637.745414592
2,2, 6, 2, 0,20,45.00,60.00,Tuesday
35,47969302.99938982
47,13608000.0
83,7776000.0
4101,5556412.44881068
4164,28804890.55057914
2,2, 6, 2, 0,21, 0.00,15.00,Tuesday
35,47296131.15947601
47,13608000.0
83,7776000.0
4101,5357723.414592007
4164,28330407.74488401
2,2, 6, 2, 0,21,15.00,30.00,Tuesday
35,46688070.93565591
47,13608000.0
83,7776000.0
4101,5185948.1620644955
4164,27894122.773591418
2,2, 6, 2, 0,21,30.00,45.00,Tuesday
35,46128011.46079931
47,13608000.0
83,7776000.0
4101,5027770.785833216
4164,27492240.674966097
2,2, 6, 2, 0,21,45.00,60.00,Tuesday
35,45647264.100863814
47,13608000.0
83,7776000.0
4101,4899080.122517223
4164,27140183.97834659
2,2, 6, 2, 0,22, 0.00,15.00,Tuesday
35,19454668.870363045
47,1360800.0
83,972000.0
4101,2619530.621814628
4164,15474338.248548415
2,2, 6, 2, 0,22,15.00,30.00,Tuesday
35,18870968.640368205
47,1360800.0
83,972000.0
4101,2619530.621814628
4164,14890638.018553576
2,2, 6, 2, 0,22,30.00,45.00,Tuesday
35,18869155.243078258
47,1360800.0
83,972000.0
4101,2619530.621814628
4164,14888824.621263629
2,2, 6, 2, 0,22,45.00,60.00,Tuesday
35,18867309.071662307
47,1360800.0
83,972000.0
4101,2619530.621814628
4164,14886978.449847676
2,2, 6, 2, 0,23, 0.00,15.00,Tuesday
35,18868654.581356175
47,1360800.0
83,972000.0
4101,2619530.621814628
4164,14888323.959541546
2,2, 6, 2, 0,23,15.00,30.00,Tuesday
35,18869980.11489708
47,1360800.0
83,972000.0
4101,2619530.621814628
4164,14889649.493082449
2,2, 6, 2, 0,23,30.00,45.00,Tuesday
35,18871285.56627508
47,1360800.0
83,972000.0
4101,2619530.621814628
4164,14890954.944460448
2,2, 6, 2, 0,23,45.00,60.00,Tuesday
35,18872570.66072243
47,1360800.0
83,972000.0
4101,2619530.621814628
4164,14892240.038907802
2,2, 6, 2, 0,24, 0.00,15.00,Tuesday
35,18873416.361256804
47,1360800.0
83,972000.0
4101,2619530.621814628
4164,14893085.739442173
2,2, 6, 2, 0,24,15.00,30.00,Tuesday
35,18874252.631365195
47,1360800.0
83,972000.0
4101,2619530.621814628
4164,14893922.009550564
2,2, 6, 2, 0,24,30.00,45.00,Tuesday
35,18875079.58572534
47,1360800.0
83,972000.0
4101,2619530.621814628
4164,14894748.963910712
2,2, 6, 2, 0,24,45.00,60.00,Tuesday
35,18875897.48676623
47,1360800.0
83,972000.0
4101,2619530.621814628
4164,14895566.864951601
2,3, 6, 3, 0, 1, 0.00,15.00,Wednesday
35,18875828.129177924
47,1360800.0
83,972000.0
4101,2619530.621814628
4164,14895497.507363293
2,3, 6, 3, 0, 1,15.00,30.00,Wednesday
35,18875742.966334924
47,1360800.0
83,972000.0
4101,2619530.621814628
4164,14895412.344520293
2,3, 6, 3, 0, 1,30.00,45.00,Wednesday
35,18875642.12937469
47,1360800.0
83,972000.0
4101,2619530.621814628
4164,14895311.507560061
2,3, 6, 3, 0, 1,45.00,60.00,Wednesday
35,18875525.558206413
47,1360800.0
83,972000.0
4101,2619530.621814628
4164,14895194.936391782
2,3, 6, 3, 0, 2, 0.00,15.00,Wednesday
35,18875409.269836053
47,1360800.0
83,972000.0
4101,2619530.621814628
4164,14895078.648021422
2,3, 6, 3, 0, 2,15.00,30.00,Wednesday
35,18875277.463512097
47,1360800.0
83,972000.0
4101,2619530.621814628
4164,14894946.841697467
2,3, 6, 3, 0, 2,30.00,45.00,Wednesday
35,18875130.31434445
47,1360800.0
83,972000.0
4101,2619530.621814628
4164,14894799.692529822
2,3, 6, 3, 0, 2,45.00,60.00,Wednesday
35,18874968.017106667
47,1360800.0
83,972000.0
4101,2619530.621814628
4164,14894637.395292038
2,3, 6, 3, 0, 3, 0.00,15.00,Wednesday
35,18868989.995987423
47,1360800.0
83,972000.0
4101,2619530.621814628
4164,14888659.374172792
2,3, 6, 3, 0, 3,15.00,30.00,Wednesday
35,18863195.853382543
47,1360800.0
83,972000.0
4101,2619530.621814628
4164,14882865.231567914
2,3, 6, 3, 0, 3,30.00,45.00,Wednesday
35,18857577.279188186
47,1360800.0
83,972000.0
4101,2619530.621814628
4164,14877246.657373557
2,3, 6, 3, 0, 3,45.00,60.00,Wednesday
35,18852110.12174008
47,1360800.0
83,972000.0
4101,2619530.621814628
4164,14871779.49992545
2,3, 6, 3, 0, 4, 0.00,15.00,Wednesday
35,18843596.404365744
47,1360800.0
83,972000.0
4101,2619530.621814628
4164,14863265.782551115
2,3, 6, 3, 0, 4,15.00,30.00,Wednesday
35,18835489.95261589
47,1360800.0
83,972000.0
4101,2619530.621814628
4164,14855159.33080126
2,3, 6, 3, 0, 4,30.00,45.00,Wednesday
35,18827762.94067519
47,1360800.0
83,972000.0
4101,2619530.621814628
4164,14847432.31886056
2,3, 6, 3, 0, 4,45.00,60.00,Wednesday
35,18820390.19014792
47,1360800.0
83,972000.0
4101,2619530.621814628
4164,14840059.56833329
2,3, 6, 3, 0, 5, 0.00,15.00,Wednesday
35,18813348.62880469
47,1360800.0
83,972000.0
4101,2619530.621814628
4164,14833018.006990062
2,3, 6, 3, 0, 5,15.00,30.00,Wednesday
35,18806617.028270043
47,1360800.0
83,972000.0
4101,2619530.621814628
4164,14826286.406455413
2,3, 6, 3, 0, 5,30.00,45.00,Wednesday
35,18800175.95147691
47,1360800.0
83,972000.0
4101,2619530.621814628
4164,14819845.329662278
2,3, 6, 3, 0, 5,45.00,60.00,Wednesday
35,18794007.761416096
47,1360800.0
83,972000.0
4101,2619530.621814628
4164,14813677.139601465
2,3, 6, 3, 0, 6, 0.00,15.00,Wednesday
35,18790508.387002435
47,1360800.0
83,972000.0
4101,2619530.621814628
4164,14810177.765187804
2,3, 6, 3, 0, 6,15.00,30.00,Wednesday
35,18787095.785712413
47,1360800.0
83,972000.0
4101,2619530.621814628
4164,14806765.163897783
2,3, 6, 3, 0, 6,30.00,45.00,Wednesday
35,18783767.35001336
47,1360800.0
83,972000.0
4101,2619530.621814628
4164,14803436.728198731
2,3, 6, 3, 0, 6,45.00,60.00,Wednesday
35,18780519.879641168
47,1360800.0
83,972000.0
4101,2619530.621814628
4164,14800189.257826539
2,3, 6, 3, 0, 7, 0.00,15.00,Wednesday
35,18781645.92511942
47,1360800.0
83,972000.0
4101,2619530.621814628
4164,14801315.303304791
2,3, 6, 3, 0, 7,15.00,30.00,Wednesday
35,18782768.69409172
47,1360800.0
83,972000.0
4101,2619530.621814628
4164,14802438.07227709
2,3, 6, 3, 0, 7,30.00,45.00,Wednesday
35,18783887.840412986
47,1360800.0
83,972000.0
4101,2619530.621814628
4164,14803557.218598356
2,3, 6, 3, 0, 7,45.00,60.00,Wednesday
35,18785003.22978609
47,1360800.0
83,972000.0
4101,2619530.621814628
4164,14804672.60797146