Program Version,EnergyPlus, Version 23.2.0-7636e6b3e9, YMD=2024.12.13 10:17
1,5,Environment Title[],Latitude[deg],Longitude[deg],Time Zone[],Elevation[m]
2,8,Day of Simulation[],Month[],Day of Month[],DST Indicator[1=yes 0=no],Hour[],StartMinute[],EndMinute[],DayType
3,5,Cumulative Day of Simulation[],Month[],Day of Month[],DST Indicator[1=yes 0=no],DayType  ! When Daily Report Variables Requested
4,2,Cumulative Days of Simulation[],Month[]  ! When Monthly Report Variables Requested
5,1,Cumulative Days of Simulation[] ! When Run Period Report Variables Requested
6,1,Calendar Year of Simulation[] ! When Annual Report Variables Requested
7,1,Environment,Site Outdoor Air Drybulb Temperature [C] !TimeStep
8,1,SPACE1-1,Space People Occupant Count [] !TimeStep
9,1,SPACE2-1,Space People Occupant Count [] !TimeStep
10,1,SPACE3-1,Space People Occupant Count [] !TimeStep
11,1,SPACE4-1,Space People Occupant Count [] !TimeStep
12,1,SPACE5-1,Space People Occupant Count [] !TimeStep
455,1,PLENUM-1,Zone Air Temperature [C] !TimeStep
590,1,SPACE1-1,Zone Air Temperature [C] !TimeStep
653,1,SPACE2-1,Zone Air Temperature [C] !TimeStep
716,1,SPACE3-1,Zone Air Temperature [C] !TimeStep
779,1,SPACE4-1,Zone Air Temperature [C] !TimeStep
842,1,SPACE5-1,Zone Air Temperature [C] !TimeStep
1052,1,SPACE1-1 PEOPLE 1,Zone Thermal Comfort Fanger Model PPD [%] !TimeStep
1053,1,SPACE2-1 PEOPLE 1,Zone Thermal Comfort Fanger Model PPD [%] !TimeStep
1054,1,SPACE3-1 PEOPLE 1,Zone Thermal Comfort Fanger Model PPD [%] !TimeStep
1055,1,SPACE4-1 PEOPLE 1,Zone Thermal Comfort Fanger Model PPD [%] !TimeStep
1056,1,SPACE5-1 PEOPLE 1,Zone Thermal Comfort Fanger Model PPD [%] !TimeStep
End of Data Dictionary
1,RUN PERIOD 2,  39.80, 116.47,   8.00,  31.30
2,1, 6, 1, 0, 1, 0.00,15.00,Wednesday
7,17.6
8,0.0
9,0.0
10,0.0
11,0.0
12,0.0
1052,39.58793319987623
1053,40.11894903804695
1054,39.82155743624159
1055,40.52703948295325
1056,34.13738226442588
455,23.66989084042582
590,21.841213425496004
653,21.802838187772945
716,21.821505199467644
779,21.783323799589493
842,22.1305895790704
2,1, 6, 1, 0, 1,15.00,30.00,Wednesday
7,16.4
8,0.0
9,0.0
10,0.0
11,0.0
12,0.0
1052,41.250094632654886
1053,41.67176936038056
1054,41.434860671224584
1055,42.09086251844616
1056,35.19488795267813
455,23.472077573886818
590,21.746149162613552
653,21.71456807815418
716,21.72979480625342
779,21.69328446600355
842,22.06978706063085
2,1, 6, 1, 0, 1,30.00,45.00,Wednesday
7,15.2
8,0.0
9,0.0
10,0.0
11,0.0
12,0.0
1052,43.02238276112797
1053,43.31676267490634
1054,43.15906811537779
1055,43.73806499431602
1056,36.26433355610668
455,23.281203379174
590,21.641682086613216
653,21.61843421843008
716,21.62859132459159
779,21.596151359982485
842,22.00762743793261
2,1, 6, 1, 0, 1,45.00,60.00,Wednesday
7,14.0
8,0.0
9,0.0
10,0.0
11,0.0
12,0.0
1052,44.82921065491693
1053,44.98917634599651
1054,44.916848532636116
1055,45.40641841770559
1056,37.33360677699041
455,23.09637242046381
590,21.53600517861695
653,21.521535824010968
716,21.52623743612103
779,21.49872136934739
842,21.94569238377865
2,1, 6, 1, 0, 2, 0.00,15.00,Wednesday
7,13.7
8,0.0
9,0.0
10,0.0
11,0.0
12,0.0
1052,46.27293811682405
1053,46.38801111140509
1054,46.36516102107774
1055,46.801811162335575
1056,38.32874713130496
455,22.918087828977217
590,21.448943461838436
653,21.439151795067662
716,21.44001150772421
779,21.41574749445658
842,21.888362893665118
2,1, 6, 1, 0, 2,15.00,30.00,Wednesday
7,13.4
8,0.0
9,0.0
10,0.0
11,0.0
12,0.0
1052,47.547820028627015
1053,47.65405220301761
1054,47.66493564984232
1055,48.065919689770816
1056,39.26539789005144
455,22.74732095929109
590,21.378988883327963
653,21.370045441919867
716,21.36882061336238
779,21.345910505440703
842,21.836755347409596
2,1, 6, 1, 0, 2,30.00,45.00,Wednesday
7,13.100000000000001
8,0.0
9,0.0
10,0.0
11,0.0
12,0.0
1052,48.740881523030865
1053,48.856526100522686
1054,48.89025751270764
1055,49.26605029698597
1056,40.1546592435415
455,22.583933499339487
590,21.316062451929323
653,21.306392267409166
716,21.30402794199403
779,21.28156737804177
842,21.789493807579966
2,1, 6, 1, 0, 2,45.00,60.00,Wednesday
7,12.8
8,0.0
9,0.0
10,0.0
11,0.0
12,0.0
1052,49.91932516447118
1053,50.01988603372771
1054,50.10043086193048
1055,50.408584165878075
1056,41.01647035621139
455,22.42739806407777
590,21.254041777018838
653,21.244892786523128
716,21.240256762727746
779,21.21697776990872
842,21.74492667770196
2,1, 6, 1, 0, 3, 0.00,15.00,Wednesday
7,12.600000000000001
8,0.0
9,0.0
10,0.0
11,0.0
12,0.0
1052,51.09897535625039
1053,51.20035942348246
1054,51.28289808920739
1055,51.55219372190975
1056,41.90542382745612
455,22.278627031321577
590,21.18944043243608
653,21.1809633878831
716,21.175370765990827
779,21.15307583324511
842,21.696828989607692
2,1, 6, 1, 0, 3,15.00,30.00,Wednesday
7,12.4
8,0.0
9,0.0
10,0.0
11,0.0
12,0.0
1052,52.21417325097074
1053,52.29433275641579
1054,52.39287535233605
1055,52.70080417204661
1056,42.83535048010931
455,22.125328208101624
590,21.123704184664422
653,21.116624800922104
716,21.11028433407178
779,21.089894574645562
842,21.644355273944207
2,1, 6, 1, 0, 3,30.00,45.00,Wednesday
7,12.2
8,0.0
9,0.0
10,0.0
11,0.0
12,0.0
1052,53.39303472271463
1053,53.44608866778713
1054,53.56654321390472
1055,53.84180910140187
1056,43.794681008547656
455,21.96750277647402
590,21.058950689625494
653,21.053941430064267
716,21.046200208762766
779,21.027701597710074
842,21.5897490953231
2,1, 6, 1, 0, 3,45.00,60.00,Wednesday
7,12.0
8,0.0
9,0.0
10,0.0
11,0.0
12,0.0
1052,54.55593761719532
1053,54.57879718497349
1054,54.727893509965476
1055,54.97280375466815
1056,44.76320689084552
455,21.81011085201358
590,20.99592198767173
653,20.993254631423696
716,20.983481493515562
779,20.966702125663502
842,21.535091688250283
2,1, 6, 1, 0, 4, 0.00,15.00,Wednesday
7,11.9
8,0.0
9,0.0
10,0.0
11,0.0
12,0.0
1052,55.61500192494569
1053,55.65209573091131
1054,55.82531762206181
1055,56.04524272624537
1056,45.660862025130974
455,21.656218282866412
590,20.940998565037784
653,20.938469467765632
716,20.926853858240502
779,20.91144897220966
842,21.487820603534555
2,1, 6, 1, 0, 4,15.00,30.00,Wednesday
7,11.8
8,0.0
9,0.0
10,0.0
11,0.0
12,0.0
1052,56.58039395771793
1053,56.63660018554054
1054,56.8445231780683
1055,57.05648842209596
1056,46.46671861081508
455,21.506981422912848
590,20.893459089959418
653,20.889730923645033
716,20.876036168271128
779,20.861022757389456
842,21.448864267007032
2,1, 6, 1, 0, 4,30.00,45.00,Wednesday
7,11.7
8,0.0
9,0.0
10,0.0
11,0.0
12,0.0
1052,57.48366224999352
1053,57.57610968188711
1054,57.806854973945555
1055,58.00237241713114
1056,47.19751053693037
455,21.36393339962718
590,20.849698925146157
653,20.843880105152017
716,20.828517268967076
779,20.813913639686522
842,21.41539297956647
2,1, 6, 1, 0, 4,45.00,60.00,Wednesday
7,11.6
8,0.0
9,0.0
10,0.0
11,0.0
12,0.0
1052,58.35078614559003
1053,58.48370210560396
1054,58.73282540746037
1055,58.90690521956928
1056,47.89071832345695
455,21.22659475123491
590,20.807442577960575
653,20.799130626308084
716,20.782572267942346
779,20.768861240760305
842,21.384548777721943
2,1, 6, 1, 0, 5, 0.00,15.00,Wednesday
7,11.575
8,0.0
9,0.0
10,0.0
11,0.0
12,0.0
1052,59.033212621185065
1053,59.22263372869914
1054,59.49465914131557
1055,59.64021473927152
1056,48.52972314926824
455,21.094669428154035
590,20.77313704193778
653,20.76175426457946
716,20.743815783351685
779,20.731549572329016
842,21.355797263572974
2,1, 6, 1, 0, 5,15.00,30.00,Wednesday
7,11.55
8,0.0
9,0.0
10,0.0
11,0.0
12,0.0
1052,59.647036130962
1053,59.855778843861735
1054,60.13199823530679
1055,60.266710287037206
1056,49.12854619182791
455,20.968144282621118
590,20.744987837921986
653,20.731793849885864
716,20.71319256535531
779,20.701609593644285
842,21.32916766023144
2,1, 6, 1, 0, 5,30.00,45.00,Wednesday
7,11.525
8,0.0
9,0.0
10,0.0
11,0.0
12,0.0
1052,60.2009812834853
1053,60.41480025871099
1054,60.68714627366712
1055,60.819931377481815
1056,49.6857427942372
455,20.846047367034338
590,20.719503350393456
653,20.705970315084784
716,20.687653327092175
779,20.675708916934116
842,21.30451888715701
2,1, 6, 1, 0, 5,45.00,60.00,Wednesday
7,11.5
8,0.0
9,0.0
10,0.0
11,0.0
12,0.0
1052,60.59024781948713
1053,60.71799741948755
1054,60.91214386970642
1055,61.198285802071666
1056,50.077346065728655
455,20.729671272214937
590,20.699198366843312
653,20.69021492798846
716,20.67593679544152
779,20.65584884582072
842,21.284572174259047
2,1, 6, 1, 0, 6, 0.00,15.00,Wednesday
7,11.575
8,0.0
9,0.0
10,0.0
11,0.0
12,0.0
1052,60.82561224023715
1053,60.85318870489443
1054,60.97766746271524
1055,61.41559318503437
1056,50.40325667335225
455,20.620130125332235
590,20.688513085915595
653,20.686502104544957
716,20.677472627376854
779,20.64600970312393
842,21.270521548251274
2,1, 6, 1, 0, 6,15.00,30.00,Wednesday
7,11.65
8,0.0
9,0.0
10,0.0
11,0.0
12,0.0
1052,60.94818352877334
1053,60.86779615805759
1054,60.93912144342153
1055,61.51446340833146
1056,50.654172529237854
455,20.518057019626525
590,20.685286388984302
653,20.690291665269033
716,20.68544589472373
779,20.643797253856565
842,21.26098263849289
2,1, 6, 1, 0, 6,30.00,45.00,Wednesday
7,11.725000000000001
8,0.0
9,0.0
10,0.0
11,0.0
12,0.0
1052,60.400312430628865
1053,59.76585253096744
1054,59.586352501727475
1055,60.94330555075867
1056,50.18140047113539
455,20.431910399614846
590,20.70548751986492
653,20.73841698535091
716,20.745501979647912
779,20.66530970288605
842,21.268168762024963
2,1, 6, 1, 0, 6,45.00,60.00,Wednesday
7,11.8
8,0.0
9,0.0
10,0.0
11,0.0
12,0.0
1052,59.371568477058545
1053,57.94621201321608
1054,57.528691803875915
1055,59.88298618632954
1056,49.41132846831293
455,20.366471323268332
590,20.75815624341682
653,20.83819594492023
716,20.860604255261013
779,20.719614782956185
842,21.301214704271477
2,1, 6, 1, 0, 7, 0.00,15.00,Wednesday
7,11.950000000000001
8,0.0
9,0.0
10,0.0
11,0.0
12,0.0
1052,57.97536765601646
1053,55.693308783693396
1054,55.09026761333634
1055,58.46291944138719
1056,48.30791707842585
455,20.321308156244868
590,20.835801801172074
653,20.967274141087746
716,21.00232822887369
779,20.798301504537303
842,21.35830818151565
2,1, 6, 1, 0, 7,15.00,30.00,Wednesday
7,12.100000000000001
8,0.0
9,0.0
10,0.0
11,0.0
12,0.0
1052,56.29536458049758
1053,53.08570735730933
1054,52.446330181960676
1055,56.78177784055029
1056,46.94283701320448
455,20.296720956607295
590,20.92910685207058
653,21.110583893594374
716,21.15035297368198
779,20.89105199747422
842,21.43267669624212
2,1, 6, 1, 0, 7,30.00,45.00,Wednesday
7,12.25
8,0.0
9,0.0
10,0.0
11,0.0
12,0.0
1052,55.07279145819927
1053,51.40684641407912
1054,50.89756275302877
1055,55.51650573337503
1056,46.08790908938844
455,20.284780323898495
590,21.010662817894868
653,21.223433483223843
716,21.2595853880859
779,20.973092597719326
842,21.502560855291172
2,1, 6, 1, 0, 7,45.00,60.00,Wednesday
7,12.4
8,0.0
9,0.0
10,0.0
11,0.0
12,0.0
1052,54.10854518083574
1053,50.089374704184515
1054,49.89501385377772
1055,54.546590471713785
1056,45.34857125075485
455,20.28235878931672
590,21.069193863503685
653,21.300023322391926
716,21.3251797542535
779,21.031350036315175
842,21.554791931325813
2,1, 6, 1, 0, 8, 0.00,15.00,Wednesday
7,12.625
8,0.0
9,0.0
10,0.0
11,0.0
12,0.0
1052,52.975333040380946
1053,48.73137586532841
1054,48.77496168854618
1055,53.43882546374695
1056,44.417599188840626
455,20.289873566481397
590,21.149865740071515
653,21.395895530467033
716,21.40554952612962
779,21.109239899630484
842,21.634799646553684
2,1, 6, 1, 0, 8,15.00,30.00,Wednesday
7,12.850000000000001
8,0.0
9,0.0
10,0.0
11,0.0
12,0.0
1052,52.03339536691428
1053,47.48951400113402
1054,47.82450477819403
1055,52.44873390912968
1056,43.567915879513464
455,20.31062506299675
590,21.220497228037715
653,21.48035786664824
716,21.473899567808566
779,21.176543607321864
842,21.707542282968216
2,1, 6, 1, 0, 8,30.00,45.00,Wednesday
7,13.075000000000001
8,0.0
9,0.0
10,0.0
11,0.0
12,0.0
1052,50.61998284019357
1053,45.326131344207056
1054,45.97163295753877
1055,51.062654040897996
1056,42.37761632929478
455,20.352711152036193
590,21.28865620823299
653,21.57796540735094
716,21.559105282482445
779,21.242121080999706
842,21.76828287688266
2,1, 6, 1, 0, 8,45.00,60.00,Wednesday
7,13.3
8,0.0
9,0.0
10,0.0
11,0.0
12,0.0
1052,48.93803947092565
1053,42.925304618989045
1054,43.99730172142101
1055,49.4253420775768
1056,41.17513141513698
455,20.414446630506706
590,21.374838558284665
653,21.705519615196845
716,21.666444895396193
779,21.325330346533654
842,21.829971344578414
2,1, 6, 1, 0, 9, 0.00,15.00,Wednesday
7,13.500000000000002
8,11.0
9,5.0
10,11.0
11,5.0
12,20.0
1052,32.36069648356926
1053,26.22691909090409
1054,27.749998618808775
1055,32.4361838266359
1056,25.818471180670315
455,21.409483718522697
590,22.65095941472826
653,23.050616957101305
716,22.955324323814644
779,22.634946240774415
842,23.105566632060736
2,1, 6, 1, 0, 9,15.00,30.00,Wednesday
7,13.7
8,11.0
9,5.0
10,11.0
11,5.0
12,20.0
1052,23.324291230072788
1053,17.06618248359601
1054,18.967034930379626
1055,23.21777748617194
1056,17.546929616620503
455,21.841165974890934
590,23.38928597814549
653,23.951935013016886
716,23.785121971166735
779,23.38204159686026
842,24.01149628711553
2,1, 6, 1, 0, 9,30.00,45.00,Wednesday
7,13.899999999999999
8,11.0
9,5.0
10,11.0
11,5.0
12,20.0
1052,17.8171360623692
1053,12.219479360030931
1054,14.072854604306798
1055,17.652311597835833
1056,13.031381724298171
455,22.26807856546703
590,23.984704818393777
653,24.593433546142304
716,24.40365909931416
779,23.979016593722
842,24.6448142317615
2,1, 6, 1, 0, 9,45.00,60.00,Wednesday
7,14.1
8,11.0
9,5.0
10,11.0
11,5.0
12,20.0
1052,14.079406659561386
1053,9.849826309764367
1054,11.22944149594693
1055,13.913703553473411
1056,10.961728293755527
455,22.668801679984355
590,24.43563891429723
653,24.91442476337777
716,24.812248542567417
779,24.427399031442977
842,24.934299317440818
2,1, 6, 1, 0,10, 0.00,15.00,Wednesday
7,14.25
8,11.0
9,5.0
10,11.0
11,5.0
12,20.0
1052,10.204582884000061
1053,8.429917205740935
1054,9.366266140766328
1055,10.019297944195841
1056,9.659452675245674
455,23.378655458836356
590,24.99356245651756
653,24.998081610740613
716,24.996708661754333
779,24.993446833582354
842,24.998511162046256
2,1, 6, 1, 0,10,15.00,30.00,Wednesday
7,14.399999999999999
8,11.0
9,5.0
10,11.0
11,5.0
12,20.0
1052,9.541703213688379
1053,7.923494741775073
1054,8.892448251690055
1055,9.35918948205321
1056,9.201631130971052
455,23.67985214022615
590,24.999251701285313
653,24.999146117885637
716,24.999252357493774
779,24.999188415661134
842,24.99923360681766
2,1, 6, 1, 0,10,30.00,45.00,Wednesday
7,14.549999999999999
8,11.0
9,5.0
10,11.0
11,5.0
12,20.0
1052,8.901152124802053
1053,7.432884593479201
1054,8.404887970843333
1055,8.716823925225924
1056,8.66537304093292
455,24.103470641641927
590,24.99903063947879
653,24.998787936533596
716,24.998968950141506
779,24.99895380183634
842,24.99889026447388
2,1, 6, 1, 0,10,45.00,60.00,Wednesday
7,14.7
8,11.0
9,5.0
10,11.0
11,5.0
12,20.0
1052,8.417628281479622
1053,7.10839405505088
1054,8.076892804665093
1055,8.237061991448954
1056,8.28446441336331
455,24.41058314760094
590,24.99859042002555
653,24.998340037682453
716,24.998557924050676
779,24.998496686338342
842,24.998469756970316
2,1, 6, 1, 0,11, 0.00,15.00,Wednesday
7,14.849999999999998
8,11.0
9,5.0
10,11.0
11,5.0
12,20.0
1052,8.015607764571499
1053,6.829176429058052
1054,7.7755888515464875
1055,7.836424972073374
1056,7.939020526359599
455,24.76385452454086
590,24.998440151318363
653,24.998230373090788
716,24.998431903177746
779,24.998342008947283
842,24.998341927821244
2,1, 6, 1, 0,11,15.00,30.00,Wednesday
7,15.0
8,11.0
9,5.0
10,11.0
11,5.0
12,20.0
1052,7.7396430791101665
1053,6.658521986026599
1054,7.559042471547215
1055,7.569577214473199
1056,7.703693529306932
455,25.078562933931245
590,24.998296544762134
653,24.998122102120565
716,24.998299514704918
779,24.998198274260723
842,24.998213380979983
2,1, 6, 1, 0,11,30.00,45.00,Wednesday
7,15.150000000000002
8,11.0
9,5.0
10,11.0
11,5.0
12,20.0
1052,7.538403119153813
1053,6.552234963014129
1054,7.391662260249646
1055,7.378255430669668
1056,7.5287322842439295
455,25.372508276197106
590,24.997120561612427
653,24.99690828724423
716,24.997145432342258
779,24.996979022406492
842,24.996869117445783
2,1, 6, 1, 0,11,45.00,60.00,Wednesday
7,15.3
8,11.0
9,5.0
10,11.0
11,5.0
12,20.0
1052,7.397776699915823
1053,6.486598904540827
1054,7.264047066724686
1055,7.236792212452286
1056,7.396099625085682
455,25.65776892811422
590,24.996834395390017
653,24.99664239773506
716,24.996854290325448
779,24.996681908171887
842,24.996547786185005
2,1, 6, 1, 0,12, 0.00,15.00,Wednesday
7,15.475000000000001
8,8.8
9,4.0
10,8.8
11,4.0
12,16.0
1052,7.373893951607442
1053,6.5305621183353395
1054,7.270559789458559
1055,7.223441898564275
1056,7.389603198701792
455,25.905994150271063
590,24.99691485676013
653,24.996747644197463
716,24.996937055245166
779,24.996784431585624
842,24.996626988988666
2,1, 6, 1, 0,12,15.00,30.00,Wednesday
7,15.65
8,8.8
9,4.0
10,8.8
11,4.0
12,16.0
1052,7.3261940976639295
1053,6.548395633774021
1054,7.247375814166986
1055,7.191187592354595
1056,7.346949380352427
455,26.158242085756985
590,24.99686178245515
653,24.996763138214472
716,24.996895152854247
779,24.996750473141812
842,24.99657887542497
2,1, 6, 1, 0,12,30.00,45.00,Wednesday
7,15.825
8,8.8
9,4.0
10,8.8
11,4.0
12,16.0
1052,7.294542000918
1053,6.5956800294501505
1054,7.235839087715803
1055,7.167769736843255
1056,7.323754531244276
455,26.412308685767655
590,24.996840262020623
653,24.996804571076883
716,24.996881184301706
779,24.996740802134312
842,24.996562965215837
2,1, 6, 1, 0,12,45.00,60.00,Wednesday
7,16.0
8,8.8
9,4.0
10,8.8
11,4.0
12,16.0
1052,7.256188769334685
1053,6.653884233513622
1054,7.233354762073418
1055,7.148274517693039
1056,7.305143161015863
455,26.656564622862636
590,24.996826267186677
653,24.996834726927474
716,24.996885526483005
779,24.996744587639615
842,24.996561644960877
2,1, 6, 1, 0,13, 0.00,15.00,Wednesday
7,16.275
8,4.4
9,2.0
10,4.4
11,2.0
12,8.0
1052,7.452137569265716
1053,6.924352391462463
1054,7.443536231590727
1055,7.353572557185004
1056,7.527242594692822
455,26.842219541271064
590,24.997388578010387
653,24.99740114163312
716,24.997433942669055
779,24.99733722004044
842,24.997151629962318
2,1, 6, 1, 0,13,15.00,30.00,Wednesday
7,16.55
8,4.4
9,2.0
10,4.4
11,2.0
12,8.0
1052,7.519644411228697
1053,7.078680848387819
1054,7.504505564155735
1055,7.424477269489003
1056,7.587427854589407
455,27.04992441213821
590,24.99754361042031
653,24.997631829833608
716,24.997571763164334
779,24.997496839494914
842,24.997314329358883
2,1, 6, 1, 0,13,30.00,45.00,Wednesday
7,16.825000000000003
8,4.4
9,2.0
10,4.4
11,2.0
12,8.0
1052,7.559225639533906
1053,7.2064857479989115
1054,7.55996048998054
1055,7.478930400480749
1056,7.646343946457293
455,27.270685774517137
590,24.99766974655225
653,24.997823235590353
716,24.99769689149638
779,24.997632963243095
842,24.997459795573782
2,1, 6, 1, 0,13,45.00,60.00,Wednesday
7,17.1
8,4.4
9,2.0
10,4.4
11,2.0
12,8.0
1052,7.571598004297044
1053,7.265811725660768
1054,7.585404362505585
1055,7.496808480327388
1056,7.681279031713913
455,27.477260611534007
590,24.997774529379832
653,24.997948289701476
716,24.9978005227099
779,24.99774013926176
842,24.997583856378135
2,1, 6, 1, 0,14, 0.00,15.00,Wednesday
7,17.55
8,8.8
9,4.0
10,8.8
11,4.0
12,16.0
1052,7.313498232502852
1053,7.085352283562514
1054,7.363153977527546
1055,7.207230034702249
1056,7.472528103814383
455,27.63069277520486
590,24.997610666761407
653,24.99785010746365
716,24.997650061414294
779,24.997542463337762
842,24.99742380817924
2,1, 6, 1, 0,14,15.00,30.00,Wednesday
7,18.0
8,8.8
9,4.0
10,8.8
11,4.0
12,16.0
1052,7.162295230291633
1053,6.975984654325444
1054,7.225148609358058
1055,6.98390247806222
1056,7.339539867380509
455,27.726756414107168
590,24.99767284766455
653,24.997888094168047
716,24.99771117450774
779,24.99756883568885
842,24.997503704729358
2,1, 6, 1, 0,14,30.00,45.00,Wednesday
7,18.45
8,8.8
9,4.0
10,8.8
11,4.0
12,16.0
1052,7.007063787460993
1053,6.866645699087783
1054,7.087633346131071
1055,6.7652035469840115
1056,7.213005877678327
455,27.82890210054035
590,24.99766524946844
653,24.997838365941405
716,24.997702075172896
779,24.99755688283265
842,24.997506229169836
2,1, 6, 1, 0,14,45.00,60.00,Wednesday
7,18.9
8,8.8
9,4.0
10,8.8
11,4.0
12,16.0
1052,6.86274880836433
1053,6.772675431478049
1054,6.9632525268434335
1055,6.559183403281423
1056,7.095916207103372
455,27.969576808000017
590,24.99762150865697
653,24.997758358718826
716,24.997658607081302
779,24.997495094645917
842,24.99746783720642
2,1, 6, 1, 0,15, 0.00,15.00,Wednesday
7,19.525
8,11.0
9,5.0
10,11.0
11,5.0
12,20.0
1052,6.581761407224107
1053,6.536942567948756
1054,6.696968095364582
1055,6.248339319474866
1056,6.845922920982446
455,28.169317276962314
590,24.99771496167464
653,24.997821515061645
716,24.99774737661261
779,24.997582196427913
842,24.99757715626905
2,1, 6, 1, 0,15,15.00,30.00,Wednesday
7,20.15
8,11.0
9,5.0
10,11.0
11,5.0
12,20.0
1052,6.361165856811027
1053,6.349821316174186
1054,6.490245662928416
1055,6.011921099139627
1056,6.661510559830077
455,28.318383426994963
590,24.997771473892293
653,24.997823187318577
716,24.997782625984204
779,24.997628442733465
842,24.997629280996822
2,1, 6, 1, 0,15,30.00,45.00,Wednesday
7,20.775
8,11.0
9,5.0
10,11.0
11,5.0
12,20.0
1052,6.165913097986646
1053,6.182675733365528
1054,6.303152756244501
1055,5.799212309540664
1056,6.487780843406213
455,28.427216478552616
590,24.997753106835066
653,24.997763340978885
716,24.997742649582676
779,24.997591222851252
842,24.997595330968743
2,1, 6, 1, 0,15,45.00,60.00,Wednesday
7,21.4
8,11.0
9,5.0
10,11.0
11,5.0
12,20.0
1052,5.996281200084695
1053,6.037044699237171
1054,6.138622623266926
1055,5.61996265537006
1056,6.331785251111754
455,28.528090701850527
590,24.997686044907134
653,24.99767673498036
716,24.99767702678034
779,24.99751351080382
842,24.99751395324668
2,1, 6, 1, 0,16, 0.00,15.00,Wednesday
7,21.949999999999996
8,11.0
9,5.0
10,11.0
11,5.0
12,20.0
1052,5.873267485601588
1053,5.928478069002779
1054,6.01581093736786
1055,5.487862593720905
1056,6.206252386509391
455,28.67410593451721
590,24.997716612237536
653,24.99768601128471
716,24.997713630491752
779,24.99753530402956
842,24.997552475237924
2,1, 6, 1, 0,16,15.00,30.00,Wednesday
7,22.5
8,11.0
9,5.0
10,11.0
11,5.0
12,20.0
1052,5.751083692826725
1053,5.820885238354663
1054,5.898038981060267
1055,5.369932626097437
1056,6.078422335063323
455,28.789730697135774
590,24.997631753373277
653,24.997586065152827
716,24.997629368329235
779,24.997455985776924
842,24.997450125736325
2,1, 6, 1, 0,16,30.00,45.00,Wednesday
7,23.050000000000004
8,11.0
9,5.0
10,11.0
11,5.0
12,20.0
1052,5.651836107914505
1053,5.731878532193335
1054,5.800467945973381
1055,5.279053018104946
1056,5.972445856398906
455,28.874042875710767
590,24.997531842853174
653,24.997473719644596
716,24.99752772993078
779,24.997367135721355
842,24.99732703209573
2,1, 6, 1, 0,16,45.00,60.00,Wednesday
7,23.6
8,11.0
9,5.0
10,11.0
11,5.0
12,20.0
1052,5.570662029692613
1053,5.658914015857789
1054,5.720418875116309
1055,5.206409505012161
1056,5.884294360837785
455,28.94673013113429
590,24.99743393143663
653,24.997366029245097
716,24.997427262006706
779,24.997279623351904
842,24.997203988848675
2,1, 6, 1, 0,17, 0.00,15.00,Wednesday
7,23.525000000000002
8,11.0
9,5.0
10,11.0
11,5.0
12,20.0
1052,5.536194721635823
1053,5.626083993366464
1054,5.68448927836684
1055,5.1695571214480935
1056,5.832246455094605
455,29.11560539677504
590,24.997497133493482
653,24.9974264011933
716,24.997502390359593
779,24.99730497318751
842,24.997318401018006
2,1, 6, 1, 0,17,15.00,30.00,Wednesday
7,23.450000000000003
8,11.0
9,5.0
10,11.0
11,5.0
12,20.0
1052,5.496707466129237
1053,5.584830651029918
1054,5.638887858546511
1055,5.135712903833351
1056,5.766144150548499
455,29.22747573582004
590,24.997334823387703
653,24.997252632980672
716,24.997333661518738
779,24.99713991504312
842,24.997131404089398
2,1, 6, 1, 0,17,30.00,45.00,Wednesday
7,23.375
8,11.0
9,5.0
10,11.0
11,5.0
12,20.0
1052,5.47883857618433
1053,5.562994631618324
1054,5.614584116369116
1055,5.1162477058466465
1056,5.7255864327452315
455,29.2812069083791
590,24.99718873832429
653,24.997091545089507
716,24.997173641498375
779,24.997005791207524
842,24.99694243374188
2,1, 6, 1, 0,17,45.00,60.00,Wednesday
7,23.3
8,11.0
9,5.0
10,11.0
11,5.0
12,20.0
1052,5.476002909564642
1053,5.555550956272256
1054,5.6056949355032515
1055,5.105740504424304
1056,5.70266538412568
455,29.318808938911957
590,24.99708213952637
653,24.996969313538017
716,24.997047789941682
779,24.996920583084965
842,24.996787046206688
2,1, 6, 1, 0,18, 0.00,15.00,Wednesday
7,23.1
8,11.0
9,5.0
10,11.0
11,5.0
12,20.0
1052,5.49020193391415
1053,5.562779203424199
1054,5.612959061329349
1055,5.103388906123882
1056,5.695049567221531
455,29.350148997984682
590,24.99698027819817
653,24.996848300029505
716,24.996929949193024
779,24.99683615448338
842,24.996635705669213
2,1, 6, 1, 0,18,15.00,30.00,Wednesday
7,22.9
8,11.0
9,5.0
10,11.0
11,5.0
12,20.0
1052,5.51586981298297
1053,5.581474144690432
1054,5.6319158711364
1055,5.104999488780578
1056,5.699539252562218
455,29.369469815337936
590,24.99690533636062
653,24.99675484521463
716,24.996838138483373
779,24.996774187358277
842,24.99651536885425
2,1, 6, 1, 0,18,30.00,45.00,Wednesday
7,22.7
8,11.0
9,5.0
10,11.0
11,5.0
12,20.0
1052,5.571106210401865
1053,5.626932895715058
1054,5.679102304962257
1055,5.1346386991009325
1056,5.734693670772515
455,29.377181274316296
590,24.996880047465158
653,24.996687064120522
716,24.996790090638537
779,24.99679488519212
842,24.996454810256857
2,1, 6, 1, 0,18,45.00,60.00,Wednesday
7,22.5
8,11.0
9,5.0
10,11.0
11,5.0
12,20.0
1052,5.638707030586531
1053,5.684812170670639
1054,5.7398169698679595
1055,5.17503708959984
1056,5.7824958293737865
455,29.37325091370797
590,24.996897407937787
653,24.996739057341042
716,24.99682818293881
779,24.996859708847555
842,24.99645870409293
2,1, 6, 1, 0,19, 0.00,15.00,Wednesday
7,22.25
8,5.5
9,2.5
10,5.5
11,2.5
12,10.0
1052,6.029330424749645
1053,6.080751092646466
1054,6.14689261186453
1055,5.425043450314931
1056,6.166591861648385
455,29.4019127817686
590,24.99795652399312
653,24.99791965205176
716,24.99799692538531
779,24.997747705768546
842,24.99780955173872
2,1, 6, 1, 0,19,15.00,30.00,Wednesday
7,22.0
8,5.5
9,2.5
10,5.5
11,2.5
12,10.0
1052,6.24739992518964
1053,6.293681405671336
1054,6.3607823775202235
1055,5.5938094114583095
1056,6.308798767513295
455,29.434786426417347
590,24.998174300872556
653,24.99814925943889
716,24.998212332711425
779,24.99798846456387
842,24.997971721397846
2,1, 6, 1, 0,19,30.00,45.00,Wednesday
7,21.75
8,5.5
9,2.5
10,5.5
11,2.5
12,10.0
1052,6.477449053022369
1053,6.512102643730685
1054,6.580109785260291
1055,5.829966723927271
1056,6.486269156994666
455,29.44797728965806
590,24.998338953046446
653,24.99831051562941
716,24.99836114130311
779,24.99823820228417
842,24.99807348965003
2,1, 6, 1, 0,19,45.00,60.00,Wednesday
7,21.5
8,5.5
9,2.5
10,5.5
11,2.5
12,10.0
1052,6.705044758016626
1053,6.727164927787186
1054,6.814659447925024
1055,6.085849384261877
1056,6.683099141857596
455,29.424386407361457
590,24.99847762083856
653,24.998444011909175
716,24.99848769160441
779,24.998436262424935
842,24.998165006554576
2,1, 6, 1, 0,20, 0.00,15.00,Wednesday
7,21.225
8,3.3
9,1.5
10,3.3
11,1.5
12,6.0
1052,7.181633625075875
1053,7.192491701622018
1054,7.269194466646596
1055,6.62469655692361
1056,7.102792363079999
455,29.29125983771164
590,24.998892699297173
653,24.998882318979593
716,24.998916462733238
779,24.99881014647991
842,24.998610818193498
2,1, 6, 1, 0,20,15.00,30.00,Wednesday
7,20.95
8,3.3
9,1.5
10,3.3
11,1.5
12,6.0
1052,7.559388708522903
1053,7.554258427398565
1054,7.6332108638555525
1055,7.2039902309640524
1056,7.418339590027728
455,29.181701315959387
590,24.999011049626983
653,24.999002082264415
716,24.999032676697105
779,24.99899903311251
842,24.998683454152715
2,1, 6, 1, 0,20,30.00,45.00,Wednesday
7,20.674999999999997
8,3.3
9,1.5
10,3.3
11,1.5
12,6.0
1052,7.843694608965819
1053,7.951606169785919
1054,7.979987266237174
1055,7.518518829956548
1056,7.649804130190958
455,29.081684602117033
590,24.999092845683215
653,24.95693253884531
716,24.9746462918168
779,24.999080287867063
842,24.99872652564453
2,1, 6, 1, 0,20,45.00,60.00,Wednesday
7,20.4
8,3.3
9,1.5
10,3.3
11,1.5
12,6.0
1052,8.244056130047056
1053,8.4953915653944
1054,8.451044340143241
1055,7.808458794160131
1056,7.854029185374799
455,28.938740333662604
590,24.94628298629245
653,24.86117629782228
716,24.899477224631106
779,24.999156249005544
842,24.99876617923524
2,1, 6, 1, 0,21, 0.00,15.00,Wednesday
7,20.2
8,3.3
9,1.5
10,3.3
11,1.5
12,6.0
1052,8.78247379384598
1053,9.113620840737909
1054,9.00627628323224
1055,8.151739382501873
1056,8.044093924916837
455,28.750361093169005
590,24.84932237159989
653,24.74689849248417
716,24.798112150259882
779,24.97051229711951
842,24.998819414971546
2,1, 6, 1, 0,21,15.00,30.00,Wednesday
7,20.0
8,3.3
9,1.5
10,3.3
11,1.5
12,6.0
1052,9.406162423647686
1053,9.747031829792334
1054,9.598371422075346
1055,8.6830616190679
1056,8.247418165478322
455,28.537308839059044
590,24.738823916468093
653,24.640601943723162
716,24.69689403122282
779,24.88326160070368
842,24.998869986184964
2,1, 6, 1, 0,21,30.00,45.00,Wednesday
7,19.8
8,3.3
9,1.5
10,3.3
11,1.5
12,6.0
1052,10.04600490184474
1053,10.357111547298999
1054,10.18065419088073
1055,9.37813199982726
1056,8.416351052689308
455,28.31688691784444
590,24.634670164201385
653,24.548771089282578
716,24.606465661411665
779,24.758486581591523
842,24.998915874854056
2,1, 6, 1, 0,21,45.00,60.00,Wednesday
7,19.6
8,3.3
9,1.5
10,3.3
11,1.5
12,6.0
1052,10.673377465365746
1053,10.945160407345853
1054,10.744269314758498
1055,10.145414110072679
1056,8.57590820090833
455,28.098729763559035
590,24.54125361695595
653,24.467353493048712
716,24.525958906992294
779,24.628120863858808
842,24.99895399067347
2,1, 6, 1, 0,22, 0.00,15.00,Wednesday
7,19.5
8,0.0
9,0.0
10,0.0
11,0.0
12,0.0
1052,14.35840108833169
1053,14.768509790904787
1054,14.445190541167719
1055,13.88739276093736
1056,11.154780624709701