Program Version,EnergyPlus, Version 23.2.0-7636e6b3e9, YMD=2024.12.13 10:17
1,5,Environment Title[],Latitude[deg],Longitude[deg],Time Zone[],Elevation[m]
2,8,Day of Simulation[],Month[],Day of Month[],DST Indicator[1=yes 0=no],Hour[],StartMinute[],EndMinute[],DayType
3,5,Cumulative Day of Simulation[],Month[],Day of Month[],DST Indicator[1=yes 0=no],DayType  ! When Daily Meters Requested
4,2,Cumulative Days of Simulation[],Month[]  ! When Monthly Meters Requested
5,1,Cumulative Days of Simulation[] ! When Run Period Meters Requested
6,1,Calendar Year of Simulation[] ! When Annual Meters Requested
14,1,Electricity:Facility [J] !TimeStep
26,1,Electricity:Building [J] !TimeStep
62,1,InteriorLights:Electricity [J] !TimeStep
1180,1,Electricity:HVAC [J] !TimeStep
1243,1,Electricity:Plant [J] !TimeStep
19,11,Electricity:Facility [J] !RunPeriod [Value,Min,Month,Day,Hour,Minute,Max,Month,Day,Hour,Minute]
31,11,Electricity:Building [J] !RunPeriod [Value,Min,Month,Day,Hour,Minute,Max,Month,Day,Hour,Minute]
67,11,InteriorLights:Electricity [J] !RunPeriod [Value,Min,Month,Day,Hour,Minute,Max,Month,Day,Hour,Minute]
1185,11,Electricity:HVAC [J] !RunPeriod [Value,Min,Month,Day,Hour,Minute,Max,Month,Day,Hour,Minute]
1248,11,Electricity:Plant [J] !RunPeriod [Value,Min,Month,Day,Hour,Minute,Max,Month,Day,Hour,Minute]
End of Data Dictionary
1,RUN PERIOD 2,  39.80, 116.47,   8.00,  31.30
2,1, 6, 1, 0, 1, 0.00,15.00,Wednesday
14,4654857.554304754
26,427500.0
62,337500.0
1180,577012.3829306276
1243,3650345.171374127
2,1, 6, 1, 0, 1,15.00,30.00,Wednesday
14,4652590.894388302
26,427500.0
62,337500.0
1180,577012.3829306276
1243,3648078.5114576747
2,1, 6, 1, 0, 1,30.00,45.00,Wednesday
14,4650371.374017399
26,427500.0
62,337500.0
1180,577012.3829306276
1243,3645858.991086771
2,1, 6, 1, 0, 1,45.00,60.00,Wednesday
14,4648215.572604763
26,427500.0
62,337500.0
1180,577012.3829306276
1243,3643703.1896741353
2,1, 6, 1, 0, 2, 0.00,15.00,Wednesday
14,4647286.3902753815
26,427500.0
62,337500.0
1180,577012.3829306276
1243,3642774.007344754
2,1, 6, 1, 0, 2,15.00,30.00,Wednesday
14,4646393.892527865
26,427500.0
62,337500.0
1180,577012.3829306276
1243,3641881.509597237
2,1, 6, 1, 0, 2,30.00,45.00,Wednesday
14,4645536.026830923
26,427500.0
62,337500.0
1180,577012.3829306276
1243,3641023.643900295
2,1, 6, 1, 0, 2,45.00,60.00,Wednesday
14,4644710.922280588
26,427500.0
62,337500.0
1180,577012.3829306276
1243,3640198.5393499606
2,1, 6, 1, 0, 3, 0.00,15.00,Wednesday
14,4644196.989756057
26,427500.0
62,337500.0
1180,577012.3829306276
1243,3639684.6068254295
2,1, 6, 1, 0, 3,15.00,30.00,Wednesday
14,4643695.254505915
26,427500.0
62,337500.0
1180,577012.3829306276
1243,3639182.871575287
2,1, 6, 1, 0, 3,30.00,45.00,Wednesday
14,4643205.3307145545
26,427500.0
62,337500.0
1180,577012.3829306276
1243,3638692.947783927
2,1, 6, 1, 0, 3,45.00,60.00,Wednesday
14,4642726.816290711
26,427500.0
62,337500.0
1180,577012.3829306276
1243,3638214.433360084
2,1, 6, 1, 0, 4, 0.00,15.00,Wednesday
14,4642517.237881437
26,427500.0
62,337500.0
1180,577012.3829306276
1243,3638004.8549508094
2,1, 6, 1, 0, 4,15.00,30.00,Wednesday
14,4642309.680796194
26,427500.0
62,337500.0
1180,577012.3829306276
1243,3637797.2978655663
2,1, 6, 1, 0, 4,30.00,45.00,Wednesday
14,4642104.119355498
26,427500.0
62,337500.0
1180,577012.3829306276
1243,3637591.73642487
2,1, 6, 1, 0, 4,45.00,60.00,Wednesday
14,4641900.512166478
26,427500.0
62,337500.0
1180,577012.3829306276
1243,3637388.12923585
2,1, 6, 1, 0, 5, 0.00,15.00,Wednesday
14,4641898.861001256
26,427500.0
62,337500.0
1180,577012.3829306276
1243,3637386.4780706284
2,1, 6, 1, 0, 5,15.00,30.00,Wednesday
14,4641897.085880676
26,427500.0
62,337500.0
1180,577012.3829306276
1243,3637384.7029500487
2,1, 6, 1, 0, 5,30.00,45.00,Wednesday
14,4641895.189182946
26,427500.0
62,337500.0
1180,577012.3829306276
1243,3637382.806252319
2,1, 6, 1, 0, 5,45.00,60.00,Wednesday
14,4641893.174612993
26,427500.0
62,337500.0
1180,577012.3829306276
1243,3637380.791682366
2,1, 6, 1, 0, 6, 0.00,15.00,Wednesday
14,4642095.45181982
26,427500.0
62,337500.0
1180,577012.3829306276
1243,3637583.068889193
2,1, 6, 1, 0, 6,15.00,30.00,Wednesday
14,4642299.912360775
26,427500.0
62,337500.0
1180,577012.3829306276
1243,3637787.5294301473
2,1, 6, 1, 0, 6,30.00,45.00,Wednesday
14,4642506.593839764
26,427500.0
62,337500.0
1180,577012.3829306276
1243,3637994.2109091356
2,1, 6, 1, 0, 6,45.00,60.00,Wednesday
14,4642715.506821703
26,427500.0
62,337500.0
1180,577012.3829306276
1243,3638203.1238910756
2,1, 6, 1, 0, 7, 0.00,15.00,Wednesday
14,4643087.982319477
26,427500.0
62,337500.0
1180,577012.3829306276
1243,3638575.599388849
2,1, 6, 1, 0, 7,15.00,30.00,Wednesday
14,4643467.441321083
26,427500.0
62,337500.0
1180,577012.3829306276
1243,3638955.058390456
2,1, 6, 1, 0, 7,30.00,45.00,Wednesday
14,4643854.087069871
26,427500.0
62,337500.0
1180,577012.3829306276
1243,3639341.7041392433
2,1, 6, 1, 0, 7,45.00,60.00,Wednesday
14,4644248.096174793
26,427500.0
62,337500.0
1180,577012.3829306276
1243,3639735.7132441653
2,1, 6, 1, 0, 8, 0.00,15.00,Wednesday
14,4644766.98665729
26,427500.0
62,337500.0
1180,577012.3829306276
1243,3640254.603726662
2,1, 6, 1, 0, 8,15.00,30.00,Wednesday
14,4645297.937992915
26,427500.0
62,337500.0
1180,577012.3829306276
1243,3640785.555062287
2,1, 6, 1, 0, 8,30.00,45.00,Wednesday
14,4645841.338027169
26,427500.0
62,337500.0
1180,577012.3829306276
1243,3641328.9550965414
2,1, 6, 1, 0, 8,45.00,60.00,Wednesday
14,4646397.6194179775
26,427500.0
62,337500.0
1180,577012.3829306276
1243,3641885.23648735
2,1, 6, 1, 0, 9, 0.00,15.00,Wednesday
14,12094273.606463576
26,7875000.0
62,6075000.0
1180,577012.3829306276
1243,3642261.2235329486
2,1, 6, 1, 0, 9,15.00,30.00,Wednesday
14,12094653.54914979
26,7875000.0
62,6075000.0
1180,577012.3829306276
1243,3642641.1662191637
2,1, 6, 1, 0, 9,30.00,45.00,Wednesday
14,12097311.55277107
26,7875000.0
62,6075000.0
1180,579286.4431638785
1243,3643025.109607191
2,1, 6, 1, 0, 9,45.00,60.00,Wednesday
14,12102329.866844919
26,7875000.0
62,6075000.0
1180,583916.7884709185
1243,3643413.078374
2,1, 6, 1, 0,10, 0.00,15.00,Wednesday
14,14723359.686929855
26,10462500.0
62,6412500.0
1180,617329.667681303
1243,3643530.0192485526
2,1, 6, 1, 0,10,15.00,30.00,Wednesday
14,14728287.547869265
26,10462500.0
62,6412500.0
1180,622143.8522855735
1243,3643643.695583692
2,1, 6, 1, 0,10,30.00,45.00,Wednesday
14,14731705.913738405
26,10462500.0
62,6412500.0
1180,625451.8801147908
1243,3643754.033623615
2,1, 6, 1, 0,10,45.00,60.00,Wednesday
14,14736483.440344244
26,10462500.0
62,6412500.0
1180,630122.4939039289
1243,3643860.946440316
2,1, 6, 1, 0,11, 0.00,15.00,Wednesday
14,15077850.715513313
26,10800000.0
62,6750000.0
1180,633960.4717867963
1243,3643890.243726517
2,1, 6, 1, 0,11,15.00,30.00,Wednesday
14,15081367.64504425
26,10800000.0
62,6750000.0
1180,637453.4008577373
1243,3643914.2441865127
2,1, 6, 1, 0,11,30.00,45.00,Wednesday
14,15084475.836138576
26,10800000.0
62,6750000.0
1180,640543.0103706468
1243,3643932.8257679287
2,1, 6, 1, 0,11,45.00,60.00,Wednesday
14,15087175.327524243
26,10800000.0
62,6750000.0
1180,643229.3806342372
1243,3643945.946890007
2,1, 6, 1, 0,12, 0.00,15.00,Wednesday
14,14739569.357079137
26,10462500.0
62,6412500.0
1180,633127.9858633846
1243,3643941.3712157533
2,1, 6, 1, 0,12,15.00,30.00,Wednesday
14,14740507.88358671
26,10462500.0
62,6412500.0
1180,634079.0876459184
1243,3643928.79594079
2,1, 6, 1, 0,12,30.00,45.00,Wednesday
14,14742053.189375011
26,10462500.0
62,6412500.0
1180,635645.0740020794
1243,3643908.1153729325
2,1, 6, 1, 0,12,45.00,60.00,Wednesday
14,14743613.114479333
26,10462500.0
62,6412500.0
1180,637233.8991042733
1243,3643879.21537506
2,1, 6, 1, 0,13, 0.00,15.00,Wednesday
14,13709169.638637884
26,9450000.0
62,5400000.0
1180,615155.8766261997
1243,3644013.762011683
2,1, 6, 1, 0,13,15.00,30.00,Wednesday
14,13708423.32550485
26,9450000.0
62,5400000.0
1180,614288.9412081863
1243,3644134.384296664
2,1, 6, 1, 0,13,30.00,45.00,Wednesday
14,13709337.772355463
26,9450000.0
62,5400000.0
1180,615097.1859663841
1243,3644240.5863890797
2,1, 6, 1, 0,13,45.00,60.00,Wednesday
14,13710685.512245106
26,9450000.0
62,5400000.0
1180,616353.7201563453
1243,3644331.7920887596
2,1, 6, 1, 0,14, 0.00,15.00,Wednesday
14,14411306.671947213
26,10125000.0
62,6075000.0
1180,641279.0571297854
1243,3645027.614817427
2,1, 6, 1, 0,14,15.00,30.00,Wednesday
14,14417108.405336939
26,10125000.0
62,6075000.0
1180,646382.6569124295
1243,3645725.7484245105
2,1, 6, 1, 0,14,30.00,45.00,Wednesday
14,14420963.256209033
26,10125000.0
62,6075000.0
1180,649538.0987420778
1243,3646425.157466955
2,1, 6, 1, 0,14,45.00,60.00,Wednesday
14,14424779.022528663
26,10125000.0
62,6075000.0
1180,652654.2642895498
1243,3647124.758239114
2,1, 6, 1, 0,15, 0.00,15.00,Wednesday
14,14660433.018814057
26,10350000.0
62,6750000.0
1180,661896.2177346838
1243,3648536.8010793747
2,1, 6, 1, 0,15,15.00,30.00,Wednesday
14,14667315.105924273
26,10350000.0
62,6750000.0
1180,667307.0115258403
1243,3650008.094398431
2,1, 6, 1, 0,15,30.00,45.00,Wednesday
14,14673496.483428296
26,10350000.0
62,6750000.0
1180,671954.8721025409
1243,3651541.6113257566
2,1, 6, 1, 0,15,45.00,60.00,Wednesday
14,14679745.185102057
26,10350000.0
62,6750000.0
1180,676604.6189696242
1243,3653140.566132432
2,1, 6, 1, 0,16, 0.00,15.00,Wednesday
14,14223694.75894492
26,9900000.0
62,6750000.0
1180,668992.6296014959
1243,3654702.1293434245
2,1, 6, 1, 0,16,15.00,30.00,Wednesday
14,14228530.737873243
26,9900000.0
62,6750000.0
1180,672197.098042474
1243,3656333.6398307695
2,1, 6, 1, 0,16,30.00,45.00,Wednesday
14,14233640.723086163
26,9900000.0
62,6750000.0
1180,675601.3137519937
1243,3658039.4093341692
2,1, 6, 1, 0,16,45.00,60.00,Wednesday
14,14282577.388473278
26,9900000.0
62,6750000.0
1180,678730.0753925935
1243,3703847.3130806843
2,1, 6, 1, 0,17, 0.00,15.00,Wednesday
14,13317926.112739567
26,9000000.0
62,6750000.0
1180,658115.3855586387
1243,3659810.727180928
2,1, 6, 1, 0,17,15.00,30.00,Wednesday
14,13317966.072276652
26,9000000.0
62,6750000.0
1180,658364.903563933
1243,3659601.168712719
2,1, 6, 1, 0,17,30.00,45.00,Wednesday
14,13318340.70166194
26,9000000.0
62,6750000.0
1180,658852.1534750714
1243,3659488.5481868703
2,1, 6, 1, 0,17,45.00,60.00,Wednesday
14,13318169.14184498
26,9000000.0
62,6750000.0
1180,658793.9837479219
1243,3659375.1580970576
2,1, 6, 1, 0,18, 0.00,15.00,Wednesday
14,13316908.011110568
26,9000000.0
62,6750000.0
1180,658140.080112926
1243,3658767.930997643
2,1, 6, 1, 0,18,15.00,30.00,Wednesday
14,13315281.154309642
26,9000000.0
62,6750000.0
1180,657112.1103914273
1243,3658169.0439182143
2,1, 6, 1, 0,18,30.00,45.00,Wednesday
14,13312397.1496908
26,9000000.0
62,6750000.0
1180,654818.7511603897
1243,3657578.39853041
2,1, 6, 1, 0,18,45.00,60.00,Wednesday
14,13308952.374164045
26,9000000.0
62,6750000.0
1180,651956.5191865163
1243,3656995.854977528
2,1, 6, 1, 0,19, 0.00,15.00,Wednesday
14,9656607.518834405
26,5400000.0
62,4050000.0
1180,600044.9003619037
1243,3656562.6184725016
2,1, 6, 1, 0,19,15.00,30.00,Wednesday
14,9651574.566001855
26,5400000.0
62,4050000.0
1180,595448.9484749543
1243,3656125.6175269
2,1, 6, 1, 0,19,30.00,45.00,Wednesday
14,9649135.599699393
26,5400000.0
62,4050000.0
1180,593450.3804670713
1243,3655685.2192323226
2,1, 6, 1, 0,19,45.00,60.00,Wednesday
14,9646830.491421077
26,5400000.0
62,4050000.0
1180,591588.6650306921
1243,3655241.826390386
2,1, 6, 1, 0,20, 0.00,15.00,Wednesday
14,8289722.040400457
26,4050000.0
62,2700000.0
1180,584868.3352903752
1243,3654853.705110082
2,1, 6, 1, 0,20,15.00,30.00,Wednesday
14,8286192.403795826
26,4050000.0
62,2700000.0
1180,581735.0705323183
1243,3654457.3332635076
2,1, 6, 1, 0,20,30.00,45.00,Wednesday
14,8284018.064441145
26,4050000.0
62,2700000.0
1180,579964.7966897651
1243,3654053.2677513794
2,1, 6, 1, 0,20,45.00,60.00,Wednesday
14,8282918.679506139
26,4050000.0
62,2700000.0
1180,579276.4964248725
1243,3653642.183081267
2,1, 6, 1, 0,21, 0.00,15.00,Wednesday
14,8282187.074805005
26,4050000.0
62,2700000.0
1180,578835.8868435728
1243,3653351.187961432
2,1, 6, 1, 0,21,15.00,30.00,Wednesday
14,8281604.205310471
26,4050000.0
62,2700000.0
1180,578547.6628520695
1243,3653056.5424584025
2,1, 6, 1, 0,21,30.00,45.00,Wednesday
14,8281043.784217727
26,4050000.0
62,2700000.0
1180,578285.4026189195
1243,3652758.381598808
2,1, 6, 1, 0,21,45.00,60.00,Wednesday
14,8280499.313561195
26,4050000.0
62,2700000.0
1180,578042.292425398
1243,3652457.0211357954
2,1, 6, 1, 0,22, 0.00,15.00,Wednesday
14,4656879.7160907
26,427500.0
62,337500.0
1180,577012.3829306276
1243,3652367.3331600716
2,1, 6, 1, 0,22,15.00,30.00,Wednesday
14,4656788.124709447
26,427500.0
62,337500.0
1180,577012.3829306276
1243,3652275.741778819
2,1, 6, 1, 0,22,30.00,45.00,Wednesday
14,4656694.681544375
26,427500.0
62,337500.0
1180,577012.3829306276
1243,3652182.2986137476
2,1, 6, 1, 0,22,45.00,60.00,Wednesday
14,4656599.478729433
26,427500.0
62,337500.0
1180,577012.3829306276
1243,3652087.095798806
2,1, 6, 1, 0,23, 0.00,15.00,Wednesday
14,4656793.349458631
26,427500.0
62,337500.0
1180,577012.3829306276
1243,3652280.966528003
2,1, 6, 1, 0,23,15.00,30.00,Wednesday
14,4656986.173175769
26,427500.0
62,337500.0
1180,577012.3829306276
1243,3652473.790245141
2,1, 6, 1, 0,23,30.00,45.00,Wednesday
14,4657177.901501098
26,427500.0
62,337500.0
1180,577012.3829306276
1243,3652665.51857047
2,1, 6, 1, 0,23,45.00,60.00,Wednesday
14,4657368.612576526
26,427500.0
62,337500.0
1180,577012.3829306276
1243,3652856.2296458976
2,1, 6, 1, 0,24, 0.00,15.00,Wednesday
14,4657314.377945383
26,427500.0
62,337500.0
1180,577012.3829306276
1243,3652801.995014755
2,1, 6, 1, 0,24,15.00,30.00,Wednesday
14,4657259.721088111
26,427500.0
62,337500.0
1180,577012.3829306276
1243,3652747.3381574834
2,1, 6, 1, 0,24,30.00,45.00,Wednesday
14,4657204.663947618
26,427500.0
62,337500.0
1180,577012.3829306276
1243,3652692.2810169896
2,1, 6, 1, 0,24,45.00,60.00,Wednesday
14,4657149.219477733
26,427500.0
62,337500.0
1180,577012.3829306276
1243,3652636.836547105
2,2, 6, 2, 0, 1, 0.00,15.00,Thursday
14,4656828.86521002
26,427500.0
62,337500.0
1180,577012.3829306276
1243,3652316.482279392
2,2, 6, 2, 0, 1,15.00,30.00,Thursday
14,4656512.203243724
26,427500.0
62,337500.0
1180,577012.3829306276
1243,3651999.8203130965
2,2, 6, 2, 0, 1,30.00,45.00,Thursday
14,4656199.231064837
26,427500.0
62,337500.0
1180,577012.3829306276
1243,3651686.84813421
2,2, 6, 2, 0, 1,45.00,60.00,Thursday
14,4655889.881447939
26,427500.0
62,337500.0
1180,577012.3829306276
1243,3651377.498517311
2,2, 6, 2, 0, 2, 0.00,15.00,Thursday
14,4655143.912407593
26,427500.0
62,337500.0
1180,577012.3829306276
1243,3650631.5294769653
2,2, 6, 2, 0, 2,15.00,30.00,Thursday
14,4654416.814846544
26,427500.0
62,337500.0
1180,577012.3829306276
1243,3649904.4319159156
2,2, 6, 2, 0, 2,30.00,45.00,Thursday
14,4653707.850145629
26,427500.0
62,337500.0
1180,577012.3829306276
1243,3649195.4672150007
2,2, 6, 2, 0, 2,45.00,60.00,Thursday
14,4653016.443155447
26,427500.0
62,337500.0
1180,577012.3829306276
1243,3648504.060224819
2,2, 6, 2, 0, 3, 0.00,15.00,Thursday
14,4651713.862426296
26,427500.0
62,337500.0
1180,577012.3829306276
1243,3647201.479495668
2,2, 6, 2, 0, 3,15.00,30.00,Thursday
14,4650475.738004761
26,427500.0
62,337500.0
1180,577012.3829306276
1243,3645963.3550741333
2,2, 6, 2, 0, 3,30.00,45.00,Thursday
14,4649297.597180135
26,427500.0
62,337500.0
1180,577012.3829306276
1243,3644785.2142495066
2,2, 6, 2, 0, 3,45.00,60.00,Thursday
14,4648175.355238547
26,427500.0
62,337500.0
1180,577012.3829306276
1243,3643662.972307919
2,2, 6, 2, 0, 4, 0.00,15.00,Thursday
14,4646676.507807976
26,427500.0
62,337500.0
1180,577012.3829306276
1243,3642164.1248773476
2,2, 6, 2, 0, 4,15.00,30.00,Thursday
14,4645272.931066243
26,427500.0
62,337500.0
1180,577012.3829306276
1243,3640760.548135615
2,2, 6, 2, 0, 4,30.00,45.00,Thursday
14,4643956.200599071
26,427500.0
62,337500.0
1180,577012.3829306276
1243,3639443.817668443
2,2, 6, 2, 0, 4,45.00,60.00,Thursday
14,4642718.821099784
26,427500.0
62,337500.0
1180,577012.3829306276
1243,3638206.438169156
2,2, 6, 2, 0, 5, 0.00,15.00,Thursday
14,4641963.990354256
26,427500.0
62,337500.0
1180,577012.3829306276
1243,3637451.607423628
2,2, 6, 2, 0, 5,15.00,30.00,Thursday
14,4641238.819719041
26,427500.0
62,337500.0
1180,577012.3829306276
1243,3636726.4367884127
2,2, 6, 2, 0, 5,30.00,45.00,Thursday
14,4640541.705229153
26,427500.0
62,337500.0
1180,577012.3829306276
1243,3636029.3222985254
2,2, 6, 2, 0, 5,45.00,60.00,Thursday
14,4639871.154149269
26,427500.0
62,337500.0
1180,577012.3829306276
1243,3635358.7712186407
2,2, 6, 2, 0, 6, 0.00,15.00,Thursday
14,4639914.97549878
26,427500.0
62,337500.0
1180,577012.3829306276
1243,3635402.592568152
2,2, 6, 2, 0, 6,15.00,30.00,Thursday
14,4639954.421147315
26,427500.0
62,337500.0
1180,577012.3829306276
1243,3635442.0382166873
2,2, 6, 2, 0, 6,30.00,45.00,Thursday
14,4639989.414458179
26,427500.0
62,337500.0
1180,577012.3829306276
1243,3635477.031527551
2,2, 6, 2, 0, 6,45.00,60.00,Thursday
14,4640019.842435138
26,427500.0
62,337500.0
1180,577012.3829306276
1243,3635507.4595045107
2,2, 6, 2, 0, 7, 0.00,15.00,Thursday
14,4640554.919734057
26,427500.0
62,337500.0
1180,577012.3829306276
1243,3636042.5368034295
2,2, 6, 2, 0, 7,15.00,30.00,Thursday
14,4641095.291287534
26,427500.0
62,337500.0
1180,577012.3829306276
1243,3636582.9083569064
2,2, 6, 2, 0, 7,30.00,45.00,Thursday
14,4641640.63775133
26,427500.0
62,337500.0
1180,577012.3829306276
1243,3637128.254820702
2,2, 6, 2, 0, 7,45.00,60.00,Thursday
14,4642190.562646019
26,427500.0
62,337500.0
1180,577012.3829306276
1243,3637678.1797153912
2,2, 6, 2, 0, 8, 0.00,15.00,Thursday
14,4642927.361083553
26,427500.0
62,337500.0
1180,577012.3829306276
1243,3638414.978152925
2,2, 6, 2, 0, 8,15.00,30.00,Thursday
14,4643676.547150722
26,427500.0
62,337500.0
1180,577012.3829306276
1243,3639164.164220094
2,2, 6, 2, 0, 8,30.00,45.00,Thursday
14,4644437.746128906
26,427500.0
62,337500.0
1180,577012.3829306276
1243,3639925.3631982775
2,2, 6, 2, 0, 8,45.00,60.00,Thursday
14,4645210.514090434
26,427500.0
62,337500.0
1180,577012.3829306276
1243,3640698.1311598057
2,2, 6, 2, 0, 9, 0.00,15.00,Thursday
14,12093508.270445025
26,7875000.0
62,6075000.0
1180,577012.3829306276
1243,3641495.887514397
2,2, 6, 2, 0, 9,15.00,30.00,Thursday
14,12094326.882438058
26,7875000.0
62,6075000.0
1180,577012.3829306276
1243,3642314.499507431
2,2, 6, 2, 0, 9,30.00,45.00,Thursday
14,12097236.049030887
26,7875000.0
62,6075000.0
1180,579081.5485481354
1243,3643154.5004827515
2,2, 6, 2, 0, 9,45.00,60.00,Thursday
14,12103858.219476465
26,7875000.0
62,6075000.0
1180,584841.6717144744
1243,3644016.5477619916
2,2, 6, 2, 0,10, 0.00,15.00,Thursday
14,14730748.800232032
26,10462500.0
62,6412500.0
1180,623751.1854408924
1243,3644497.6147911395
2,2, 6, 2, 0,10,15.00,30.00,Thursday
14,14736359.565243576
26,10462500.0
62,6412500.0
1180,628876.7750535931
1243,3644982.790189984
2,2, 6, 2, 0,10,30.00,45.00,Thursday
14,14742808.830714852
26,10462500.0
62,6412500.0
1180,634836.8732104413
1243,3645471.9575044103
2,2, 6, 2, 0,10,45.00,60.00,Thursday
14,14749056.636421813
26,10462500.0
62,6412500.0
1180,640591.5980727236
1243,3645965.0383490906
2,2, 6, 2, 0,11, 0.00,15.00,Thursday
14,15092010.195916237
26,10800000.0
62,6750000.0
1180,645857.4945549273
1243,3646152.7013613097
2,2, 6, 2, 0,11,15.00,30.00,Thursday
14,15096935.729513705
26,10800000.0
62,6750000.0
1180,650595.2072415963
1243,3646340.522272111
2,2, 6, 2, 0,11,30.00,45.00,Thursday
14,15100715.816242572
26,10800000.0
62,6750000.0
1180,654187.3456673638
1243,3646528.4705752083
2,2, 6, 2, 0,11,45.00,60.00,Thursday
14,15103798.263113277
26,10800000.0
62,6750000.0
1180,657081.7359840053
1243,3646716.527129271
2,2, 6, 2, 0,12, 0.00,15.00,Thursday
14,14755101.7954572
26,10462500.0
62,6412500.0
1180,645581.9095150854
1243,3647019.8859421145
2,2, 6, 2, 0,12,15.00,30.00,Thursday
14,14756225.667488517
26,10462500.0
62,6412500.0
1180,646398.4511323627
1243,3647327.2163561545
2,2, 6, 2, 0,12,30.00,45.00,Thursday
14,14758150.273729308
26,10462500.0
62,6412500.0
1180,648011.6906056385
1243,3647638.58312367
2,2, 6, 2, 0,12,45.00,60.00,Thursday
14,14760097.18897954
26,10462500.0
62,6412500.0
1180,649643.1326514281
1243,3647954.056328112
2,2, 6, 2, 0,13, 0.00,15.00,Thursday
14,13723146.693182223
26,9450000.0
62,5400000.0
1180,624938.2329733843
1243,3648208.460208838
2,2, 6, 2, 0,13,15.00,30.00,Thursday
14,13722189.73840267
26,9450000.0
62,5400000.0
1180,623724.2085201279
1243,3648465.5298825423
2,2, 6, 2, 0,13,30.00,45.00,Thursday
14,13723017.873606693
26,9450000.0
62,5400000.0
1180,624292.59005569
1243,3648725.2835510047
2,2, 6, 2, 0,13,45.00,60.00,Thursday
14,13724314.025226925
26,9450000.0
62,5400000.0
1180,625326.2095835238
1243,3648987.8156434
2,2, 6, 2, 0,14, 0.00,15.00,Thursday
14,14427046.63977363
26,10125000.0
62,6075000.0
1180,652525.3590937871
1243,3649521.2806798425
2,2, 6, 2, 0,14,15.00,30.00,Thursday
14,14433105.266927248
26,10125000.0
62,6075000.0
1180,658039.0656785922
1243,3650066.2012486565
2,2, 6, 2, 0,14,30.00,45.00,Thursday
14,14437044.083956525
26,10125000.0
62,6075000.0
1180,661421.089658417
1243,3650622.994298107
2,2, 6, 2, 0,14,45.00,60.00,Thursday
14,14441123.120389016
26,10125000.0
62,6075000.0
1180,664931.133675974
1243,3651191.986713042
2,2, 6, 2, 0,15, 0.00,15.00,Thursday
14,14676749.908826644
26,10350000.0
62,6750000.0
1180,674296.4794923607
1243,3652453.4293342824
2,2, 6, 2, 0,15,15.00,30.00,Thursday
14,14683011.41192129
26,10350000.0
62,6750000.0
1180,679234.0734963579
1243,3653777.3384249327
2,2, 6, 2, 0,15,30.00,45.00,Thursday
14,14688239.75257646
26,10350000.0
62,6750000.0
1180,683071.5636434176
1243,3655168.188933042
2,2, 6, 2, 0,15,45.00,60.00,Thursday
14,14693618.61545508
26,10350000.0
62,6750000.0
1180,686987.7240276178
1243,3656630.891427463
2,2, 6, 2, 0,16, 0.00,15.00,Thursday
14,14236431.91098963
26,9900000.0
62,6750000.0
1180,678440.8559704153
1243,3657991.0550192157
2,2, 6, 2, 0,16,15.00,30.00,Thursday
14,14293944.671813335
26,9900000.0
62,6750000.0
1180,681460.726479545
1243,3712483.9453337896
2,2, 6, 2, 0,16,30.00,45.00,Thursday
14,14446036.657334825
26,9900000.0
62,6750000.0
1180,685170.3435887692
1243,3860866.313746055
2,2, 6, 2, 0,16,45.00,60.00,Thursday
14,14618642.272982601
26,9900000.0
62,6750000.0
1180,688778.0605699564
1243,4029864.212412644
2,2, 6, 2, 0,17, 0.00,15.00,Thursday
14,13503691.151377792
26,9000000.0
62,6750000.0
1180,666151.8566105644
1243,3837539.294767228
2,2, 6, 2, 0,17,15.00,30.00,Thursday
14,13523716.321876977
26,9000000.0
62,6750000.0
1180,666548.2966301243
1243,3857168.025246851
2,2, 6, 2, 0,17,30.00,45.00,Thursday
14,13544533.547076976
26,9000000.0
62,6750000.0
1180,666569.7149702867
1243,3877963.8321066895
2,2, 6, 2, 0,17,45.00,60.00,Thursday
14,13554628.92632675
26,9000000.0
62,6750000.0
1180,665694.7384501386
1243,3888934.187876612
2,2, 6, 2, 0,18, 0.00,15.00,Thursday
14,13508600.315408152
26,9000000.0
62,6750000.0
1180,664954.9283861438
1243,3843645.3870220105
2,2, 6, 2, 0,18,15.00,30.00,Thursday
14,13449921.528494723
26,9000000.0
62,6750000.0
1180,663471.4222753036
1243,3786450.106219419
2,2, 6, 2, 0,18,30.00,45.00,Thursday
14,13380920.39001885
26,9000000.0
62,6750000.0
1180,661075.8857325807
1243,3719844.5042862697
2,2, 6, 2, 0,18,45.00,60.00,Thursday
14,13319975.3684759
26,9000000.0
62,6750000.0
1180,658141.0487307311
1243,3661834.319745167
2,2, 6, 2, 0,19, 0.00,15.00,Thursday
14,9665174.295514867
26,5400000.0
62,4050000.0
1180,604062.7179557852
1243,3661111.577559081
2,2, 6, 2, 0,19,15.00,30.00,Thursday
14,9658193.757311633
26,5400000.0
62,4050000.0
1180,597671.4434329737
1243,3660522.313878658
2,2, 6, 2, 0,19,30.00,45.00,Thursday
14,9655520.926358026
26,5400000.0
62,4050000.0
1180,595583.8339026603
1243,3659937.0924553648
2,2, 6, 2, 0,19,45.00,60.00,Thursday
14,9652913.37142644
26,5400000.0
62,4050000.0
1180,593557.324488075
1243,3659356.0469383644
2,2, 6, 2, 0,20, 0.00,15.00,Thursday
14,8295486.9133786615
26,4050000.0
62,2700000.0
1180,586606.2977275127
1243,3658880.6156511493
2,2, 6, 2, 0,20,15.00,30.00,Thursday
14,8291787.901903753
26,4050000.0
62,2700000.0
1180,583381.0699732794
1243,3658406.831930473
2,2, 6, 2, 0,20,30.00,45.00,Thursday
14,8289175.515267343
26,4050000.0
62,2700000.0
1180,581240.6143951466
1243,3657934.9008721965
2,2, 6, 2, 0,20,45.00,60.00,Thursday
14,8287237.146375405
26,4050000.0
62,2700000.0
1180,579772.2679276762
1243,3657464.878447728
2,2, 6, 2, 0,21, 0.00,15.00,Thursday
14,8286509.964106155
26,4050000.0
62,2700000.0
1180,579123.3580486848
1243,3657386.6060574693
2,2, 6, 2, 0,21,15.00,30.00,Thursday
14,8286046.045330182
26,4050000.0
62,2700000.0
1180,578740.2133019892
1243,3657305.832028193
2,2, 6, 2, 0,21,30.00,45.00,Thursday
14,8285694.082210064
26,4050000.0
62,2700000.0
1180,578471.5000124886
1243,3657222.5821975754
2,2, 6, 2, 0,21,45.00,60.00,Thursday
14,8285361.559469202
26,4050000.0
62,2700000.0
1180,578224.6525125082
1243,3657136.906956693
2,2, 6, 2, 0,22, 0.00,15.00,Thursday
14,4661802.13074795
26,427500.0
62,337500.0
1180,577012.3829306276
1243,3657289.7478173217
2,2, 6, 2, 0,22,15.00,30.00,Thursday
14,4661955.505910987
26,427500.0
62,337500.0
1180,577012.3829306276
1243,3657443.1229803595
2,2, 6, 2, 0,22,30.00,45.00,Thursday
14,4662109.413417554
26,427500.0
62,337500.0
1180,577012.3829306276
1243,3657597.0304869264
2,2, 6, 2, 0,22,45.00,60.00,Thursday
14,4662263.880208962
26,427500.0
62,337500.0
1180,577012.3829306276
1243,3657751.4972783336
2,2, 6, 2, 0,23, 0.00,15.00,Thursday
14,4662063.806979807
26,427500.0
62,337500.0
1180,577012.3829306276
1243,3657551.4240491795
2,2, 6, 2, 0,23,15.00,30.00,Thursday
14,4661864.945497744
26,427500.0
62,337500.0
1180,577012.3829306276
1243,3657352.562567116
2,2, 6, 2, 0,23,30.00,45.00,Thursday
14,4661667.294523779
26,427500.0
62,337500.0
1180,577012.3829306276
1243,3657154.9115931513
2,2, 6, 2, 0,23,45.00,60.00,Thursday
14,4661470.834027265
26,427500.0
62,337500.0
1180,577012.3829306276
1243,3656958.451096637
2,2, 6, 2, 0,24, 0.00,15.00,Thursday
14,4661132.387662951
26,427500.0
62,337500.0
1180,577012.3829306276
1243,3656620.0047323233
2,2, 6, 2, 0,24,15.00,30.00,Thursday
14,4660796.131021191
26,427500.0
62,337500.0
1180,577012.3829306276
1243,3656283.748090564
2,2, 6, 2, 0,24,30.00,45.00,Thursday
14,4660462.108036987
26,427500.0
62,337500.0
1180,577012.3829306276
1243,3655949.725106359
2,2, 6, 2, 0,24,45.00,60.00,Thursday
14,4660130.252247885
26,427500.0
62,337500.0
1180,577012.3829306276
1243,3655617.8693172573
2,3, 6, 3, 0, 1, 0.00,15.00,Friday
14,4659636.762392581
26,427500.0
62,337500.0
1180,577012.3829306276
1243,3655124.379461954
2,3, 6, 3, 0, 1,15.00,30.00,Friday
14,4659149.508163468
26,427500.0
62,337500.0
1180,577012.3829306276
1243,3654637.12523284
2,3, 6, 3, 0, 1,30.00,45.00,Friday
14,4658668.409910707
26,427500.0
62,337500.0
1180,577012.3829306276
1243,3654156.026980079
2,3, 6, 3, 0, 1,45.00,60.00,Friday
14,4658193.412772631
26,427500.0
62,337500.0
1180,577012.3829306276
1243,3653681.0298420032
2,3, 6, 3, 0, 2, 0.00,15.00,Friday
14,4657653.015770306
26,427500.0
62,337500.0
1180,577012.3829306276
1243,3653140.6328396783
2,3, 6, 3, 0, 2,15.00,30.00,Friday
14,4657118.012002897
26,427500.0
62,337500.0
1180,577012.3829306276
1243,3652605.62907227
2,3, 6, 3, 0, 2,30.00,45.00,Friday
14,4656588.404487102
26,427500.0
62,337500.0
1180,577012.3829306276
1243,3652076.0215564743
2,3, 6, 3, 0, 2,45.00,60.00,Friday
14,4656064.278039651
26,427500.0
62,337500.0
1180,577012.3829306276
1243,3651551.8951090234
2,3, 6, 3, 0, 3, 0.00,15.00,Friday
14,4655770.792979988
26,427500.0
62,337500.0
1180,577012.3829306276
1243,3651258.4100493602
2,3, 6, 3, 0, 3,15.00,30.00,Friday
14,4655471.928705961
26,427500.0
62,337500.0
1180,577012.3829306276
1243,3650959.545775334
2,3, 6, 3, 0, 3,30.00,45.00,Friday
14,4655167.928904199
26,427500.0
62,337500.0
1180,577012.3829306276
1243,3650655.5459735715
2,3, 6, 3, 0, 3,45.00,60.00,Friday
14,4654859.1193227405
26,427500.0
62,337500.0
1180,577012.3829306276
1243,3650346.736392113
2,3, 6, 3, 0, 4, 0.00,15.00,Friday
14,4654649.522029429
26,427500.0
62,337500.0
1180,577012.3829306276
1243,3650137.139098801
2,3, 6, 3, 0, 4,15.00,30.00,Friday
14,4654431.415208305
26,427500.0
62,337500.0
1180,577012.3829306276
1243,3649919.0322776777
2,3, 6, 3, 0, 4,30.00,45.00,Friday
14,4654205.202560539
26,427500.0
62,337500.0
1180,577012.3829306276
1243,3649692.819629912
2,3, 6, 3, 0, 4,45.00,60.00,Friday
14,4653971.241229601
26,427500.0
62,337500.0
1180,577012.3829306276
1243,3649458.858298973
2,3, 6, 3, 0, 5, 0.00,15.00,Friday
14,4653729.843822812
26,427500.0
62,337500.0
1180,577012.3829306276
1243,3649217.460892184
2,3, 6, 3, 0, 5,15.00,30.00,Friday
14,4653481.462805136
26,427500.0
62,337500.0
1180,577012.3829306276
1243,3648969.0798745085
2,3, 6, 3, 0, 5,30.00,45.00,Friday
14,4653226.35560551
26,427500.0
62,337500.0
1180,577012.3829306276
1243,3648713.9726748825
2,3, 6, 3, 0, 5,45.00,60.00,Friday
14,4652964.915759344
26,427500.0
62,337500.0
1180,577012.3829306276
1243,3648452.5328287156
2,3, 6, 3, 0, 6, 0.00,15.00,Friday
14,4652944.584169623
26,427500.0
62,337500.0
1180,577012.3829306276
1243,3648432.201238996
2,3, 6, 3, 0, 6,15.00,30.00,Friday
14,4652915.485400055
26,427500.0
62,337500.0
1180,577012.3829306276
1243,3648403.102469427
2,3, 6, 3, 0, 6,30.00,45.00,Friday
14,4652877.74477147
26,427500.0
62,337500.0
1180,577012.3829306276
1243,3648365.3618408428
2,3, 6, 3, 0, 6,45.00,60.00,Friday
14,4652831.554699813
26,427500.0
62,337500.0
1180,577012.3829306276
1243,3648319.1717691855
2,3, 6, 3, 0, 7, 0.00,15.00,Friday
14,4652773.2527101915
26,427500.0
62,337500.0
1180,577012.3829306276
1243,3648260.8697795635
2,3, 6, 3, 0, 7,15.00,30.00,Friday
14,4652709.221759349
26,427500.0
62,337500.0
1180,577012.3829306276
1243,3648196.8388287215
2,3, 6, 3, 0, 7,30.00,45.00,Friday
14,4652639.617425893
26,427500.0
62,337500.0
1180,577012.3829306276
1243,3648127.2344952654
2,3, 6, 3, 0, 7,45.00,60.00,Friday
14,4652564.518780439
26,427500.0
62,337500.0
1180,577012.3829306276
1243,3648052.135849811